LAMMPS data file generated by OpenBabel
11 atoms
10 bonds
18 angles
18 dihedrals
0 impropers
3 atom types
4 bond types
6 angle types
4 dihedral types
0 improper types
  -6.07670    4.57420 xlo xhi
  -6.07670    4.57420 ylo yhi
  -6.07670    4.57420 zlo zhi



Masses

1 12.0107 # C
2 1.00794 # H
3 14.0067 # N


Atoms

1       1    1    0.00000   -4.65000    2.59170    0.00000 #   C
2       1    1    0.00000   -3.93550    3.00420    0.00000 #   C
3       1    3    0.00000   -3.22110    2.59170    0.00000 #   N
4       1    2    0.41000   -5.57660    3.12670    0.00000 #   H
5       1    2    0.41000   -4.65000    1.52170    0.00000 #   H
6       1    2    0.41000   -5.57670    2.05670    0.00000 #   H
7       1    2    0.41000   -3.93550    4.07420    0.00000 #   H
8       1    2    0.41000   -3.00880    3.53920    0.00000 #   H
9       1    2    0.41000   -3.22110    1.57170    0.00000 #   H
10      1    2    0.41000   -2.33770    3.10170    0.00000 #   H
11      1    2    0.41000   -2.33780    2.08170    0.00000 #   H


Bonds

1       1    1    2 #  C: C
2       2    1    4 #  C: H
3       2    1    5 #  C: H
4       2    1    6 #  C: H
5       3    3    2 #  N: C
6       2    2    7 #  C: H
7       2    2    8 #  C: H
8       4    3    9 #  N: H
9       4    3   10 #  N: H
10      4    3   11 #  N: H


Angles

1       1    2    1    4 #  C: C: H
2       1    2    1    5 #  C: C: H
3       1    2    1    6 #  C: C: H
4       3    5    1    4 #  H: C: H
5       3    6    1    4 #  H: C: H
6       3    6    1    5 #  H: C: H
7       5    3    2    1 #  N: C: C
8       1    1    2    7 #  C: C: H
9       1    1    2    8 #  C: C: H
10      6    3    2    7 #  N: C: H
11      6    3    2    8 #  N: C: H
12      3    8    2    7 #  H: C: H
13      2    2    3    9 #  C: N: H
14      2    2    3   10 #  C: N: H
15      2    2    3   11 #  C: N: H
16      4   10    3    9 #  H: N: H
17      4   11    3    9 #  H: N: H
18      4   11    3   10 #  H: N: H


Dihedrals

1       4    3    1    2    4 #  N: C: C: H
2       2    7    1    2    4 #  H: C: C: H
3       2    8    1    2    4 #  H: C: C: H
4       4    3    1    2    5 #  N: C: C: H
5       2    7    1    2    5 #  H: C: C: H
6       2    8    1    2    5 #  H: C: C: H
7       4    3    1    2    6 #  N: C: C: H
8       2    7    1    2    6 #  H: C: C: H
9       2    8    1    2    6 #  H: C: C: H
10      1    1    2    3    9 #  C: C: N: H
11      1    1    2    3   10 #  C: C: N: H
12      1    1    2    3   11 #  C: C: N: H
13      3    9    2    3    7 #  H: C: N: H
14      3   10    2    3    7 #  H: C: N: H
15      3   11    2    3    7 #  H: C: N: H
16      3    9    2    3    8 #  H: C: N: H
17      3   10    2    3    8 #  H: C: N: H
18      3   11    2    3    8 #  H: C: N: H
