LAMMPS data file generated by OpenBabel
4 atoms
3 bonds
3 angles
0 dihedrals
0 impropers
2 atom types
1 bond types
1 angle types
0 dihedral types
0 improper types
  -1.71800    1.54600 xlo xhi
  -1.71800    1.54600 ylo yhi
  -1.71800    1.54600 zlo zhi



Masses

1 14.0067 # N
2 15.9994 # O


Atoms

1       1    1    0.00000   -0.00000    0.00000   -0.00100 #   N
2       1    2   -0.82000   -1.21800    0.01700    0.00000 #   O
3       1    2   -0.82000    0.62300    1.04600    0.00000 #   O
4       1    2   -0.82000    0.59500   -1.06300    0.00000 #   O


Bonds

1       1    2    1 #  O: N
2       1    3    1 #  O: N
3       1    4    1 #  O: N


Angles

1       1    3    1    2 #  O: N: O
2       1    4    1    2 #  O: N: O
3       1    4    1    3 #  O: N: O

