LAMMPS (2 Aug 2023)
# Initialization
units lj
dimension 3
atom_style atomic
pair_style lj/cut 2.5
boundary p p p


# System definition
region simulation_box block -10 10 -10 10 -10 10
create_box 1 simulation_box
Created orthogonal box = (-10 -10 -10) to (10 10 10)
  1 by 1 by 1 MPI processor grid
create_atoms 1 random 2500 341341 simulation_box
Created 2500 atoms
  using lattice units in orthogonal box = (-10 -10 -10) to (10 10 10)
  create_atoms CPU = 0.000 seconds

# Simulation settings
mass 1 1
pair_coeff 1 1 1.0 1.0

# Minimize
minimize 1.0e-4 1.0e-6 1000 10000
Generated 0 of 0 mixed pair_coeff terms from geometric mixing rule
Neighbor list info ...
  update: every = 1 steps, delay = 0 steps, check = yes
  max neighbors/atom: 2000, page size: 100000
  master list distance cutoff = 2.8
  ghost atom cutoff = 2.8
  binsize = 1.4, bins = 15 15 15
  1 neighbor lists, perpetual/occasional/extra = 1 0 0
  (1) pair lj/cut, perpetual
      attributes: half, newton on
      pair build: half/bin/atomonly/newton
      stencil: half/bin/3d
      bin: standard
Per MPI rank memory allocation (min/avg/max) = 4.312 | 4.312 | 4.312 Mbytes
   Step          Temp          E_pair         E_mol          TotEng         Press     
         0   0              2.6722447e+11  0              2.6722447e+11  3.3403061e+11
       653   0             -5.5577601      0             -5.5577601     -0.11719547   
Loop time of 1.14026 on 1 procs for 653 steps with 2500 atoms

99.5% CPU use with 1 MPI tasks x no OpenMP threads

Minimization stats:
  Stopping criterion = energy tolerance
  Energy initial, next-to-last, final = 
      267224471194.259  -5.55738787717789  -5.55776011300881
  Force two-norm initial, final = 1.3583625e+17 21.738541
  Force max component initial, final = 8.6168688e+16 6.925373
  Final line search alpha, max atom move = 0.042323927 0.29310898
  Iterations, force evaluations = 653 1273

MPI task timing breakdown:
Section |  min time  |  avg time  |  max time  |%varavg| %total
---------------------------------------------------------------
Pair    | 0.74431    | 0.74431    | 0.74431    |   0.0 | 65.27
Neigh   | 0.32794    | 0.32794    | 0.32794    |   0.0 | 28.76
Comm    | 0.015901   | 0.015901   | 0.015901   |   0.0 |  1.39
Output  | 0          | 0          | 0          |   0.0 |  0.00
Modify  | 0          | 0          | 0          |   0.0 |  0.00
Other   |            | 0.05212    |            |       |  4.57

Nlocal:           2500 ave        2500 max        2500 min
Histogram: 1 0 0 0 0 0 0 0 0 0
Nghost:           2378 ave        2378 max        2378 min
Histogram: 1 0 0 0 0 0 0 0 0 0
Neighs:          65457 ave       65457 max       65457 min
Histogram: 1 0 0 0 0 0 0 0 0 0

Total # of neighbors = 65457
Ave neighs/atom = 26.1828
Neighbor list builds = 229
Dangerous builds = 2

# Dynamics
timestep 0.005
fix mynvt all nvt temp 1.0 1.0 $(100.0*dt)
fix mynvt all nvt temp 1.0 1.0 0.5

# For our purposes we need to output the temperature and energy of the system
variable T equal temp
variable E equal etotal
#fix convergence_T all ave/time 1 1 1 v_T file convergence_T.txt
#fix convergence_E all ave/time 1 1 1 v_E file convergence_E.txt
run 5000
Generated 0 of 0 mixed pair_coeff terms from geometric mixing rule
Per MPI rank memory allocation (min/avg/max) = 3.187 | 3.187 | 3.187 Mbytes
   Step          Temp          E_pair         E_mol          TotEng         Press     
       653   0             -5.5577601      0             -5.5577601     -0.11719547   
      5653   0.99964394    -2.9041628      0             -1.4052967      0.011241326  
Loop time of 3.06553 on 1 procs for 5000 steps with 2500 atoms

Performance: 704609.546 tau/day, 1631.041 timesteps/s, 4.078 Matom-step/s
99.2% CPU use with 1 MPI tasks x no OpenMP threads

MPI task timing breakdown:
Section |  min time  |  avg time  |  max time  |%varavg| %total
---------------------------------------------------------------
Pair    | 1.9505     | 1.9505     | 1.9505     |   0.0 | 63.63
Neigh   | 0.93954    | 0.93954    | 0.93954    |   0.0 | 30.65
Comm    | 0.05094    | 0.05094    | 0.05094    |   0.0 |  1.66
Output  | 2.5375e-05 | 2.5375e-05 | 2.5375e-05 |   0.0 |  0.00
Modify  | 0.10257    | 0.10257    | 0.10257    |   0.0 |  3.35
Other   |            | 0.02198    |            |       |  0.72

Nlocal:           2500 ave        2500 max        2500 min
Histogram: 1 0 0 0 0 0 0 0 0 0
Nghost:           2907 ave        2907 max        2907 min
Histogram: 1 0 0 0 0 0 0 0 0 0
Neighs:          48224 ave       48224 max       48224 min
Histogram: 1 0 0 0 0 0 0 0 0 0

Total # of neighbors = 48224
Ave neighs/atom = 19.2896
Neighbor list builds = 578
Dangerous builds = 0

dump mydmp all custom 200 dump.lammpstrj id vx vy vz
thermo 10
run 50000
Generated 0 of 0 mixed pair_coeff terms from geometric mixing rule
Per MPI rank memory allocation (min/avg/max) = 3.189 | 3.189 | 3.189 Mbytes
   Step          Temp          E_pair         E_mol          TotEng         Press     
      5653   0.99964394    -2.9041628      0             -1.4052967      0.011241326  
      5660   0.99184546    -2.896917       0             -1.4097439      0.034472074  
      5670   0.97374473    -2.8760782      0             -1.4160454      0.0747576    
      5680   0.98234952    -2.8949147      0             -1.4219799      0.048356189  
      5690   0.97522499    -2.8887492      0             -1.4264968      0.059460867  
      5700   0.96946277    -2.8845542      0             -1.4309418      0.070528311  
      5710   0.97547663    -2.8964205      0             -1.4337908      0.053600456  
      5720   0.9732913     -2.8954627      0             -1.4361097      0.054338838  
      5730   0.96023337    -2.8771876      0             -1.4374137      0.074247431  
      5740   0.98159585    -2.9100749      0             -1.4382701      0.011942609  
      5750   0.98062027    -2.9085357      0             -1.4381937     -0.0006886437 
      5760   0.98594936    -2.9158127      0             -1.4374802     -0.0075545252 
      5770   0.98307461    -2.9099608      0             -1.4359387      0.014666871  
      5780   0.9834303     -2.9089662      0             -1.4344108      0.038929265  
      5790   0.97204422    -2.8897402      0             -1.4322571      0.086283593  
      5800   0.98027538    -2.8989442      0             -1.4291193      0.082165369  
      5810   0.98363613    -2.9004631      0             -1.4255991      0.074401134  
      5820   0.99342044    -2.9113355      0             -1.4218009      0.047890408  
      5830   0.98990106    -2.9017923      0             -1.4175347      0.055507936  
      5840   0.99814835    -2.9096825      0             -1.4130589      0.042314719  
      5850   0.98618937    -2.8874438      0             -1.4087514      0.08077281   
      5860   0.99601877    -2.896787       0             -1.4033564      0.071996299  
      5870   0.99181614    -2.8851087      0             -1.3979795      0.08488553   
      5880   0.99869419    -2.890291       0             -1.3928489      0.070569384  
      5890   1.0119484     -2.9048648      0             -1.3875494      0.045503472  
      5900   0.99911662    -2.8800676      0             -1.3819921      0.083076338  
      5910   0.99819289    -2.873265       0             -1.3765746      0.098810967  
      5920   0.9916939     -2.8576337      0             -1.3706879      0.12100105   
      5930   1.0161613     -2.8885737      0             -1.3649415      0.065953647  
      5940   1.0173668     -2.8848579      0             -1.3594181      0.062486927  
      5950   1.013624      -2.874839       0             -1.3550111      0.078015896  
      5960   1.0096329     -2.8645544      0             -1.3507109      0.084349817  
      5970   1.027672      -2.8877046      0             -1.3468132      0.037159048  
      5980   1.0172628     -2.8689662      0             -1.3436824      0.054995445  
      5990   1.0147018     -2.8625779      0             -1.3411341      0.061388769  
      6000   1.0034847     -2.8440529      0             -1.339428       0.080584958  
      6010   1.002044      -2.8392581      0             -1.3367934      0.069841535  
      6020   1.0219484     -2.8664966      0             -1.3341871      0.026052934  
      6030   1.0183893     -2.8600744      0             -1.3331015      0.04712237   
      6040   1.0061431     -2.8406306      0             -1.3320196      0.084749681  
      6050   1.0130142     -2.8506318      0             -1.3317184      0.072898384  
      6060   1.0071612     -2.8414947      0             -1.3313573      0.080330231  
      6070   1.0093995     -2.8446538      0             -1.3311602      0.072444155  
      6080   1.0088215     -2.8438538      0             -1.3312268      0.068383001  
      6090   1.0049021     -2.8383168      0             -1.3315667      0.069363833  
      6100   1.0074326     -2.8428251      0             -1.3322808      0.052087866  
      6110   1.0045654     -2.8396957      0             -1.3334504      0.039538454  
      6120   1.0034316     -2.8384774      0             -1.3339321      0.025416902  
      6130   1.0120994     -2.853036       0             -1.3354941      0.0002565454 
      6140   0.98244547    -2.8101917      0             -1.337113       0.066579716  
      6150   0.99093856    -2.8238303      0             -1.338017       0.05283355   
      6160   0.9942376     -2.829264       0             -1.3385042      0.04833296   
      6170   0.99614058    -2.8321348      0             -1.3385217      0.050154976  
      6180   1.0010192     -2.8406711      0             -1.3397428      0.049831342  
      6190   0.99226665    -2.8278259      0             -1.3400212      0.070906208  
      6200   0.99624608    -2.834161       0             -1.3403896      0.059611463  
      6210   0.99911201    -2.8381923      0             -1.3401237      0.05156236   
      6220   0.99417175    -2.8312386      0             -1.3405775      0.063105027  
      6230   0.98986798    -2.8247433      0             -1.3405352      0.077514422  
      6240   0.99228292    -2.8280688      0             -1.3402397      0.071071594  
      6250   0.98750333    -2.8200968      0             -1.3394343      0.072292823  
      6260   1.0036253     -2.8434099      0             -1.3385741      0.026409413  
      6270   0.99795211    -2.8339972      0             -1.3376678      0.034231853  
      6280   0.98857825    -2.818902       0             -1.3366277      0.056940714  
      6290   0.99224281    -2.8232966      0             -1.3355278      0.049138986  
      6300   0.99745562    -2.829576       0             -1.333991       0.036195505  
      6310   0.99220475    -2.8203947      0             -1.3326829      0.039847398  
      6320   1.0051888     -2.8380395      0             -1.3308594      0.0077931414 
      6330   0.98873664    -2.8115671      0             -1.3290554      0.046714131  
      6340   0.99178901    -2.8143998      0             -1.3273114      0.047514546  
      6350   0.98411544    -2.8007373      0             -1.3251546      0.071055509  
      6360   0.99420671    -2.8131018      0             -1.3223882      0.054532732  
      6370   1.0081051     -2.8312247      0             -1.319672       0.029940316  
      6380   0.99965651    -2.8163637      0             -1.3174788      0.06067161   
      6390   0.98475298    -2.7914372      0             -1.3148986      0.10485727   
      6400   0.9988948     -2.8101654      0             -1.3124225      0.075732376  
      6410   1.0206536     -2.8394717      0             -1.3091037      0.02747295   
      6420   1.0143473     -2.8278561      0             -1.3069437      0.047721639  
      6430   1.0186757     -2.8327094      0             -1.3053071      0.054188043  
      6440   1.0086163     -2.8160191      0             -1.3036998      0.090509215  
      6450   1.028588      -2.8452956      0             -1.3030307      0.058495846  
      6460   1.0205062     -2.8323834      0             -1.3022364      0.082293357  
      6470   1.0289937     -2.8451237      0             -1.3022505      0.068722997  
      6480   1.0260181     -2.8419336      0             -1.303522       0.0791553    
      6490   1.0136561     -2.8248706      0             -1.3049946      0.10365638   
      6500   1.0213212     -2.8385108      0             -1.3071418      0.079773692  
      6510   1.0083423     -2.8215684      0             -1.3096599      0.091647614  
      6520   1.0193242     -2.8413047      0             -1.3129299      0.055516911  
      6530   0.9980585     -2.8134128      0             -1.3169239      0.095738516  
      6540   0.99086035    -2.8057478      0             -1.3200518      0.10064478   
      6550   0.99634756    -2.8176731      0             -1.3237496      0.073814855  
      6560   0.98458008    -2.8035164      0             -1.327237       0.082907073  
      6570   0.99646871    -2.8242663      0             -1.3301611      0.042289295  
      6580   0.99464853    -2.8242215      0             -1.3328455      0.035310949  
      6590   0.98091825    -2.8055854      0             -1.3347966      0.052128009  
      6600   0.98579119    -2.8151508      0             -1.3370555      0.026474841  
      6610   0.9768749     -2.8032904      0             -1.3385642      0.037318577  
      6620   0.97540572    -2.8016969      0             -1.3391735      0.041498119  
      6630   0.97614637    -2.8025013      0             -1.3388674      0.037730835  
      6640   0.97879376    -2.8064916      0             -1.3388883      0.023509155  
      6650   0.97268511    -2.7957356      0             -1.3372916      0.02997133   
      6660   0.98059523    -2.8054636      0             -1.3351591      0.017669573  
      6670   0.97800016    -2.7989867      0             -1.3325732      0.029467343  
      6680   0.98210723    -2.8020322      0             -1.3294606      0.025741361  
      6690   0.97908887    -2.7939891      0             -1.3259433      0.036464666  
      6700   0.97960283    -2.7903947      0             -1.3215782      0.04440711   
      6710   0.98384712    -2.7915449      0             -1.3163645      0.044926733  
      6720   0.9968517     -2.8053753      0             -1.3106959      0.027942171  
      6730   0.99486797    -2.7969092      0             -1.3052042      0.04257267   
      6740   0.98549085    -2.7772103      0             -1.2995653      0.070189724  
      6750   0.99428885    -2.7838855      0             -1.2930488      0.055134958  
      6760   0.99919256    -2.7847184      0             -1.2865291      0.046876078  
      6770   1.0069492     -2.7904209      0             -1.2806013      0.03489839   
      6780   1.0053889     -2.781773       0             -1.2742929      0.041510867  
      6790   1.0034556     -2.7728413      0             -1.26826        0.044291138  
      6800   1.0056447     -2.7702297      0             -1.2623661      0.041304359  
      6810   1.0101324     -2.7716914      0             -1.2570989      0.039920415  
      6820   1.0130394     -2.7703023      0             -1.251351       0.047084035  
      6830   1.0076603     -2.7570227      0             -1.2461368      0.079787885  
      6840   1.0076719     -2.7521285      0             -1.2412252      0.10357095   
      6850   1.0050423     -2.7436796      0             -1.2367192      0.12024247   
      6860   1.0037823     -2.7378517      0             -1.2327806      0.11441601   
      6870   1.0172927     -2.7541281      0             -1.2287994      0.069624711  
      6880   1.0167258     -2.7492801      0             -1.2248014      0.063603604  
      6890   1.0204602     -2.7521403      0             -1.2220622      0.05278303   
      6900   1.0206127     -2.7497614      0             -1.2194546      0.049284643  
      6910   1.0109141     -2.7329223      0             -1.2171576      0.071512185  
      6920   1.0201274     -2.7447138      0             -1.2151348      0.047535328  
      6930   1.0237665     -2.7484932      0             -1.2134577      0.034828484  
      6940   1.0219311     -2.7453637      0             -1.2130802      0.041964399  
      6950   1.0100523     -2.7281041      0             -1.2136317      0.070107247  
      6960   1.0114423     -2.7309878      0             -1.2144312      0.064702524  
      6970   1.0064838     -2.7247618      0             -1.21564        0.066954243  
      6980   1.0134613     -2.7364346      0             -1.2168507      0.039732295  
      6990   1.0213537     -2.7499429      0             -1.2185251      0.017226981  
      7000   1.0145924     -2.7417961      0             -1.2205163      0.035768971  
      7010   1.0104315     -2.7382312      0             -1.2231902      0.050807465  
      7020   1.0045614     -2.7326914      0             -1.2264521      0.06317687   
      7030   1.0006311     -2.7303791      0             -1.2300329      0.069367262  
      7040   1.0046791     -2.7397559      0             -1.2333401      0.05813564   
      7050   1.0089111     -2.7493519      0             -1.2365906      0.04410873   
      7060   1.0013654     -2.7416813      0             -1.240234       0.058865604  
      7070   0.99927287    -2.7426441      0             -1.2443344      0.05919047   
      7080   0.98727322    -2.7277082      0             -1.2473908      0.076800841  
      7090   0.99065053    -2.7361757      0             -1.2507943      0.058026571  
      7100   1.0055287     -2.7618272      0             -1.2541375      0.016448402  
      7110   0.98276251    -2.7306003      0             -1.2570461      0.063137708  
      7120   0.98960033    -2.74295        0             -1.2591432      0.049407659  
      7130   0.98249118    -2.7345807      0             -1.2614334      0.053845551  
      7140   0.99292326    -2.7516804      0             -1.2628913      0.019332148  
      7150   0.98834673    -2.746183       0             -1.264256       0.024970911  
      7160   0.98423066    -2.7410745      0             -1.2653191      0.034497185  
      7170   0.99576451    -2.7593338      0             -1.2662845      0.017483164  
      7180   0.98407196    -2.7420981      0             -1.2665806      0.050305235  
      7190   0.99522735    -2.7592388      0             -1.2669949      0.031911605  
      7200   0.97850157    -2.7336485      0             -1.2664833      0.074295958  
      7210   0.98684014    -2.7456566      0             -1.2659885      0.060471572  
      7220   0.98799583    -2.7461681      0             -1.2647672      0.053094746  
      7230   0.98769257    -2.743994       0             -1.2630477      0.048665256  
      7240   0.98890282    -2.7435131      0             -1.2607522      0.044627122  
      7250   0.99032118    -2.7440087      0             -1.2591211      0.040802547  
      7260   0.99754835    -2.7519631      0             -1.2562391      0.024234271  
      7270   1.0067041     -2.763156       0             -1.2537038      0.0029970572 
      7280   1.0023031     -2.7540993      0             -1.2512461      0.017494049  
      7290   1.0118976     -2.7661841      0             -1.2489448      0.010302129  
      7300   1.0189838     -2.7752828      0             -1.2474185      0.013348651  
      7310   1.0015048     -2.747546       0             -1.2458897      0.071831999  
      7320   1.0056598     -2.7521107      0             -1.2442244      0.079894993  
      7330   1.0137159     -2.7627359      0             -1.2427703      0.070103887  
      7340   1.0192668     -2.7704671      0             -1.2421785      0.068206413  
      7350   1.0075802     -2.75309        0             -1.2423242      0.10318709   
      7360   1.0105253     -2.7578385      0             -1.2426569      0.095072876  
      7370   1.0206461     -2.7737649      0             -1.2434081      0.069689371  
      7380   1.0164218     -2.7683213      0             -1.2442983      0.079078891  
      7390   1.0099641     -2.7599663      0             -1.2456261      0.087555556  
      7400   1.0186915     -2.7746885      0             -1.2472625      0.056208188  
      7410   1.0017378     -2.751449       0             -1.2494433      0.086083058  
      7420   1.0062515     -2.760945       0             -1.2521715      0.070137021  
      7430   1.0097684     -2.7681669      0             -1.2541202      0.052284998  
      7440   0.99583941    -2.7501058      0             -1.2569442      0.079273155  
      7450   1.0005366     -2.7597994      0             -1.2595948      0.074798935  
      7460   0.99182319    -2.7492525      0             -1.2621128      0.09389043   
      7470   0.98911423    -2.7478041      0             -1.2647263      0.10160249   
      7480   0.99132224    -2.7527969      0             -1.2664083      0.093307109  
      7490   0.99339814    -2.7575088      0             -1.2680077      0.081070821  
      7500   0.99215997    -2.7572664      0             -1.2696217      0.074974807  
      7510   0.98453426    -2.7468595      0             -1.2706489      0.078807216  
      7520   0.98645372    -2.7505735      0             -1.2714848      0.062063235  
      7530   0.99052316    -2.757615       0             -1.2724245      0.043022415  
      7540   0.98154165    -2.7440343      0             -1.2723108      0.050449741  
      7550   0.98067821    -2.7421845      0             -1.2717555      0.0409497    
      7560   0.96906312    -2.72408        0             -1.2710668      0.061052872  
      7570   0.97204305    -2.7266863      0             -1.2692049      0.049419359  
      7580   0.97408555    -2.7265988      0             -1.2660549      0.040264435  
      7590   0.98196507    -2.7350373      0             -1.2626789      0.026004281  
      7600   0.97929375    -2.7272764      0             -1.2589233      0.045917762  
      7610   0.97895035    -2.7225624      0             -1.2547242      0.062384682  
      7620   0.9930051     -2.738414       0             -1.2495022      0.036861279  
      7630   1.0025278     -2.7475702      0             -1.2443799      0.025401932  
      7640   0.9999432     -2.7377838      0             -1.238469       0.054777366  
      7650   0.99262846    -2.7212809      0             -1.2329338      0.093971756  
      7660   0.99849874    -2.7237501      0             -1.2266011      0.088298874  
      7670   1.0086699     -2.7331018      0             -1.2207021      0.065989204  
      7680   1.0118677     -2.7327148      0             -1.2155205      0.061307728  
      7690   1.005018      -2.7175202      0             -1.2105963      0.076191088  
      7700   1.0164531     -2.7302646      0             -1.2061947      0.050434318  
      7710   1.025277      -2.7392887      0             -1.2019884      0.038305566  
      7720   1.0246793     -2.7350376      0             -1.1986335      0.047291273  
      7730   1.0196383     -2.7241912      0             -1.1953455      0.061724729  
      7740   1.0260069     -2.7316315      0             -1.1932368      0.050741863  
      7750   1.0099076     -2.7062775      0             -1.1920221      0.088473357  
      7760   1.0016887     -2.6921458      0             -1.1902138      0.10210371   
      7770   1.0123965     -2.7072516      0             -1.1892643      0.066790191  
      7780   1.0119439     -2.7056611      0             -1.1883524      0.056773651  
      7790   1.0125049     -2.7062259      0             -1.1880761      0.052329947  
      7800   1.0022731     -2.6900709      0             -1.1872626      0.072608408  
      7810   0.99945439    -2.6859466      0             -1.1873647      0.072284968  
      7820   1.0057433     -2.6955783      0             -1.1875668      0.052085644  
      7830   1.0028354     -2.691161       0             -1.1875096      0.056243126  
      7840   0.99999953    -2.6873001      0             -1.1879008      0.064705816  
      7850   1.0127728     -2.706802       0             -1.1882504      0.038779078  
      7860   1.0008219     -2.6893495      0             -1.1887171      0.068025652  
      7870   0.99712608    -2.6841906      0             -1.1890998      0.073677704  
      7880   1.0078303     -2.7010431      0             -1.1899024      0.040782297  
      7890   1.0113042     -2.7067311      0             -1.1903815      0.029666551  
      7900   1.0121286     -2.7092645      0             -1.1916789      0.022917609  
      7910   1.0035433     -2.6977627      0             -1.1930499      0.033327527  
      7920   0.99933447    -2.6929012      0             -1.1944991      0.027929926  
      7930   1.002811      -2.6988747      0             -1.1952599      0.0032701924 
      7940   0.99594506    -2.6900932      0             -1.1967732      0.0017870575 
      7950   1.0042981     -2.7040162      0             -1.1981717     -0.028690353  
      7960   0.99675406    -2.6938929      0             -1.1993599     -0.019403843  
      7970   0.98212547    -2.673187       0             -1.200588       0.015657386  
      7980   0.97999561    -2.6708687      0             -1.2014633      0.020830283  
      7990   0.9946157     -2.6936571      0             -1.2023303     -0.017866239  
      8000   0.98067362    -2.6727569      0             -1.2023349      0.015456177  
      8010   0.98169691    -2.6740225      0             -1.2020661      0.023807183  
      8020   0.98473656    -2.6780312      0             -1.2015172      0.026662445  
      8030   0.98397103    -2.6758265      0             -1.2004604      0.035345858  
      8040   1.001551      -2.7010359      0             -1.1993103      0.0061026447 
      8050   0.99281431    -2.6863281      0             -1.1977023      0.029636325  
      8060   1.0017275     -2.6977989      0             -1.1958087      0.015052899  
      8070   1.0071769     -2.703967       0             -1.1938059      0.019125691  
      8080   1.0031472     -2.6964537      0             -1.1923348      0.050722498  
      8090   0.99344665    -2.6801797      0             -1.1906058      0.085848173  
      8100   1.0056619     -2.6970059      0             -1.1891164      0.0597947    
      8110   1.0159778     -2.7109614      0             -1.1876042      0.030213041  
      8120   1.0074137     -2.6969708      0             -1.1864546      0.047775456  
      8130   1.0198591     -2.7146468      0             -1.1854701      0.025802373  
      8140   1.0077119     -2.6955554      0             -1.1845922      0.055238657  
      8150   1.0123393     -2.7024878      0             -1.1845862      0.051262706  
      8160   1.0106229     -2.6993542      0             -1.1840261      0.057995214  
      8170   1.0249715     -2.7213984      0             -1.1845561      0.025551828  
      8180   1.0159096     -2.7093032      0             -1.1860484      0.045050292  
      8190   1.0139372     -2.7082433      0             -1.1879459      0.049985587  
      8200   1.0047545     -2.6963891      0             -1.1898602      0.05944486   
      8210   1.0144695     -2.713248       0             -1.1921524      0.023494178  
      8220   1.0035679     -2.6997077      0             -1.194958       0.03546596   
      8230   1.0024267     -2.7009686      0             -1.19793        0.032650897  
      8240   0.99477891    -2.6926892      0             -1.2011177      0.048064933  
      8250   0.98353476    -2.6790709      0             -1.2043589      0.075947618  
      8260   0.99010007    -2.6914516      0             -1.2068955      0.056747585  
      8270   0.99855086    -2.7062284      0             -1.2090012      0.029824636  
      8280   0.9876157     -2.6913547      0             -1.2105237      0.050865148  
      8290   0.98689627    -2.6919185      0             -1.2121663      0.055431871  
      8300   0.98145038    -2.6848284      0             -1.2132417      0.067154186  
      8310   0.99618085    -2.707591       0             -1.2139174      0.037158329  
      8320   0.97576777    -2.6780222      0             -1.214956       0.076254813  
      8330   0.98792756    -2.6959773      0             -1.2146787      0.03505836   
      8340   0.99964057    -2.7129838      0             -1.2141227     -0.0037106093 
      8350   0.98777138    -2.6944845      0             -1.2134201      0.022892507  
      8360   0.99161918    -2.6999735      0             -1.2131397      0.024805477  
      8370   0.9956989     -2.7050375      0             -1.2120866      0.02934311   
      8380   0.98817324    -2.6927865      0             -1.2111195      0.062118304  
      8390   0.98786115    -2.6905236      0             -1.2093246      0.073333749  
      8400   0.98940598    -2.6916934      0             -1.2081781      0.071895805  
      8410   0.99646144    -2.6996871      0             -1.2055928      0.062602483  
      8420   0.99175788    -2.689919       0             -1.2028772      0.080767123  
      8430   0.98912964    -2.6834538      0             -1.2003528      0.09149011   
      8440   1.0015034     -2.6986164      0             -1.1969622      0.066168164  
      8450   1.0058692     -2.7023036      0             -1.1941033      0.058781132  
      8460   1.001682      -2.6928905      0             -1.1909684      0.073623168  
      8470   1.0113693     -2.7048313      0             -1.1883841      0.054113326  
      8480   1.0106638     -2.7011775      0             -1.1857881      0.05875552   
      8490   1.0121438     -2.7016333      0             -1.1840248      0.063816847  
      8500   1.0199621     -2.7116165      0             -1.1822853      0.060429986  
      8510   1.007711      -2.6925192      0             -1.1815574      0.10448462   
      8520   1.0096845     -2.6950156      0             -1.1810947      0.10935608   
      8530   1.0221434     -2.7124632      0             -1.1798613      0.084004533  
      8540   1.023975      -2.715807       0             -1.1804589      0.078678563  
      8550   1.0188451     -2.7085918      0             -1.1809354      0.081601249  
      8560   1.0156597     -2.7054651      0             -1.1825849      0.077591054  
      8570   1.0146929     -2.7060005      0             -1.1845699      0.068125866  
      8580   1.0144195     -2.7080726      0             -1.187052       0.055912722  
      8590   1.0042186     -2.6953901      0             -1.1896648      0.062501069  
      8600   1.0005314     -2.6931886      0             -1.1929918      0.056929431  
      8610   0.99940829    -2.6938153      0             -1.1953025      0.050614227  
      8620   1.0020346     -2.7007906      0             -1.1983399      0.039918629  
      8630   0.99697181    -2.6963423      0             -1.2014828      0.047671708  
      8640   1.0017816     -2.7067556      0             -1.2046842      0.033652762  
      8650   0.99331587    -2.6967339      0             -1.2073561      0.054857254  
      8660   0.98134677    -2.6813045      0             -1.2098732      0.089165001  
      8670   0.98990793    -2.6965289      0             -1.212261       0.074837527  
      8680   0.9777557     -2.679829       0             -1.2137821      0.098431652  
      8690   0.97896501    -2.6828495      0             -1.2149894      0.087563921  
      8700   0.98733682    -2.6965761      0             -1.2161633      0.058645806  
      8710   0.98604351    -2.6949172      0             -1.2164436      0.057510023  
      8720   0.97440598    -2.6767001      0             -1.2156758      0.078459213  
      8730   0.9678605     -2.6665383      0             -1.2153283      0.083673264  
      8740   0.97813924    -2.6800707      0             -1.2134487      0.053266821  
      8750   0.9854145     -2.688386       0             -1.2108555      0.032026443  
      8760   0.98816306    -2.6897195      0             -1.2080678      0.030725199  
      8770   0.98073001    -2.6751513      0             -1.2046447      0.052539263  
      8780   0.98631241    -2.6799189      0             -1.2010421      0.036643304  
      8790   1.0005365     -2.6969492      0             -1.1967447      0.0020455588 
      8800   0.99380963    -2.6823139      0             -1.1921957      0.024892149  
      8810   0.9970343     -2.6829262      0             -1.187973       0.03354071   
      8820   0.99728284    -2.678804       0             -1.1834781      0.047918653  
      8830   1.0070173     -2.6887767      0             -1.1788551      0.044405506  
      8840   1.0036472     -2.6794961      0             -1.1746275      0.070708967  
      8850   1.0113975     -2.6870647      0             -1.1705752      0.077332748  
      8860   1.0129419     -2.685348       0             -1.1665429      0.082202381  
      8870   1.0219857     -2.6951018      0             -1.1627365      0.059955892  
      8880   1.0120877     -2.676685       0             -1.1591608      0.086173472  
      8890   0.99854196    -2.6541154      0             -1.1569016      0.1181       
      8900   1.0156442     -2.6773421      0             -1.1544851      0.075291556  
      8910   1.0122517     -2.6701206      0             -1.1523505      0.068206248  
      8920   1.0133153     -2.6693434      0             -1.1499785      0.051073689  
      8930   1.0174786     -2.6743681      0             -1.1487606      0.035349645  
      8940   1.0005179     -2.647851       0             -1.1476745      0.069756871  
      8950   1.0081261     -2.6582735      0             -1.1466893      0.054523297  
      8960   1.0025531     -2.6494495      0             -1.1462213      0.059204818  
      8970   1.004656      -2.651926       0             -1.1455448      0.036236406  
      8980   1.016422      -2.6693023      0             -1.1452791     -0.00024350258
      8990   0.9954284     -2.6380347      0             -1.1454894      0.045397779  
      9000   0.98048318    -2.6151597      0             -1.1450232      0.077546083  
      9010   0.99000557    -2.6291705      0             -1.1447561      0.045575861  
      9020   0.99018446    -2.6286876      0             -1.1440051      0.034795809  
      9030   0.99307311    -2.6315986      0             -1.1425848      0.028012168  
      9040   0.99258015    -2.6292522      0             -1.1409776      0.036704396  
      9050   0.98014136    -2.608894       0             -1.1392701      0.068326844  
      9060   0.99223845    -2.625062       0             -1.1372997      0.040394543  
      9070   1.0026491     -2.6385761      0             -1.135204       0.012106587  
      9080   1.0032666     -2.6370667      0             -1.1327688      0.010927086  
      9090   1.0009935     -2.6309515      0             -1.1300619      0.023150906  
      9100   1.0033318     -2.6320372      0             -1.1276415      0.028642496  
      9110   1.0007244     -2.6255993      0             -1.125113       0.045218704  
      9120   0.9979362     -2.6194724      0             -1.1231668      0.057373268  
      9130   0.99766517    -2.6165926      0             -1.1206934      0.061126259  
      9140   0.99638648    -2.6121721      0             -1.1181902      0.05538592   
      9150   0.99868953    -2.6130486      0             -1.1156135      0.033476434  
      9160   0.99942126    -2.6118532      0             -1.113321       0.018335608  
      9170   0.99732877    -2.6060341      0             -1.1106393      0.011589362  
      9180   1.0011893     -2.6093878      0             -1.1082045     -0.0021329605 
      9190   0.9936383     -2.5951817      0             -1.1053204      0.012885389  
      9200   1.0000072     -2.6015817      0             -1.1021709      0.0015510939 
      9210   1.0022328     -2.6024975      0             -1.0997497      0.0056153675 
      9220   1.0022803     -2.6001088      0             -1.0972897      0.020097873  
      9230   1.0071524     -2.6049461      0             -1.0948218      0.028800612  
      9240   1.0063059     -2.6017432      0             -1.0928882      0.053959077  
      9250   1.0168926     -2.6153904      0             -1.0906616      0.054764846  
      9260   1.006232      -2.597534       0             -1.0887898      0.095079197  
      9270   1.0221448     -2.6202023      0             -1.0875984      0.072630059  
      9280   1.0273574     -2.627722       0             -1.0873024      0.071923141  
      9290   1.0169899     -2.6124354      0             -1.0875608      0.10991334   
      9300   1.012319      -2.6062216      0             -1.0883505      0.12334352   
      9310   1.0291239     -2.6325614      0             -1.089493       0.073849251  
      9320   1.0355207     -2.6440981      0             -1.0914384      0.037596762  
      9330   1.0315306     -2.6420512      0             -1.0953742      0.031698015  
      9340   1.0170612     -2.6238         0             -1.0988185      0.062843882  
      9350   1.0231638     -2.6373903      0             -1.1032585      0.049503524  
      9360   1.0239626     -2.6437447      0             -1.1084152      0.043005907  
      9370   1.0257533     -2.6526178      0             -1.1146033      0.038139211  
      9380   1.0065319     -2.630702       0             -1.1215081      0.086382871  
      9390   0.99653852    -2.622836       0             -1.1286261      0.11315212   
      9400   0.99830316    -2.631848       0             -1.1349922      0.10005602   
      9410   1.0137455     -2.6619092      0             -1.1418992      0.0496202    
      9420   1.0036723     -2.6539597      0             -1.1490535      0.054312833  
      9430   1.002706      -2.6600295      0             -1.1565722      0.04173521   
      9440   0.99059674    -2.6484698      0             -1.163169       0.056479952  
      9450   0.98023274    -2.6400311      0             -1.1702701      0.074657684  
      9460   0.9796096     -2.6446431      0             -1.1758165      0.070646562  
      9470   0.98351486    -2.6562204      0             -1.1815382      0.052140786  
      9480   0.98844378    -2.66858        0             -1.1865074      0.039807816  
      9490   0.97921626    -2.6592722      0             -1.1910353      0.066746503  
      9500   0.97839093    -2.662426       0             -1.1954266      0.074558963  
      9510   0.97844514    -2.6655321      0             -1.1984515      0.071374018  
      9520   0.98187693    -2.6733708      0             -1.2011445      0.049762307  
      9530   0.98186765    -2.6751689      0             -1.2029566      0.028287261  
      9540   0.9790349     -2.6723314      0             -1.2043665      0.017578218  
      9550   0.97993878    -2.6751061      0             -1.2057859      0.0039442229 
      9560   0.97729366    -2.6715543      0             -1.2062002      0.0022882962 
      9570   0.98110978    -2.6777805      0             -1.2067045     -0.0030031846 
      9580   0.98049691    -2.6758903      0             -1.2057333      0.011814717  
      9590   0.97860183    -2.6714789      0             -1.2041633      0.034290863  
      9600   0.98108134    -2.6732433      0             -1.20221        0.046375553  
      9610   0.98097353    -2.6705328      0             -1.1996611      0.057271395  
      9620   0.9805118     -2.6669415      0             -1.1967622      0.061790855  
      9630   0.98059782    -2.663705       0             -1.1933966      0.057244713  
      9640   0.99028037    -2.6736241      0             -1.1887978      0.031147689  
      9650   0.98733529    -2.6647723      0             -1.1843617      0.036935765  
      9660   0.98606052    -2.6579235      0             -1.1794244      0.051306525  
      9670   0.97125558    -2.6306032      0             -1.1743026      0.10385636   
      9680   0.98887222    -2.651192       0             -1.168477       0.077428311  
      9690   0.99877274    -2.6595478      0             -1.1619879      0.056889493  
      9700   1.0022374     -2.6581466      0             -1.1553918      0.051373991  
      9710   1.0156122     -2.6718848      0             -1.1490758      0.026075422  
      9720   1.0166417     -2.66744        0             -1.1430874      0.0392926    
      9730   1.0047891     -2.6443765      0             -1.1377958      0.093300674  
      9740   1.012956      -2.6509589      0             -1.1321327      0.098494753  
      9750   1.0260141     -2.6653013      0             -1.1268957      0.084362321  
      9760   1.027318      -2.6627832      0             -1.1224226      0.090790221  
      9770   1.0189063     -2.6464908      0             -1.1187427      0.11848951   
      9780   1.028488      -2.6580003      0             -1.1158854      0.10155131   
      9790   1.0346123     -2.66519        0             -1.1138923      0.082587779  
      9800   1.0400501     -2.6725451      0             -1.113094       0.063769991  
      9810   1.0296681     -2.657334       0             -1.1134497      0.079287116  
      9820   1.0371248     -2.669753       0             -1.114688       0.057313717  
      9830   1.0259562     -2.6553137      0             -1.1169949      0.065965494  
      9840   1.0235925     -2.6545773      0             -1.1198026      0.049630603  
      9850   1.0149237     -2.6454004      0             -1.1236238      0.046720026  
      9860   1.0050876     -2.6346195      0             -1.1275913      0.053402926  
      9870   0.99899907    -2.6299323      0             -1.1320331      0.057311979  
      9880   1.0091167     -2.6494034      0             -1.1363337      0.03022062   
      9890   1.0044665     -2.6470638      0             -1.1409668      0.037639103  
      9900   0.99620487    -2.6395181      0             -1.1458085      0.050361976  
      9910   1.0045796     -2.6568134      0             -1.1505468      0.019926498  
      9920   1.0114134     -2.6719014      0             -1.1553882      0.0058712844 
      9930   0.9910006     -2.6462858      0             -1.1603795      0.057286572  
      9940   0.99055639    -2.650249       0             -1.1650088      0.060425028  
      9950   0.992182      -2.6566749      0             -1.1689973      0.051043966  
      9960   0.98524862    -2.6502474      0             -1.1729656      0.053906294  
      9970   0.99686363    -2.6717993      0             -1.1771019      0.017433192  
      9980   0.98782394    -2.66212        0             -1.1809768      0.02747576   
      9990   0.98326448    -2.6584735      0             -1.1841668      0.038176754  
     10000   0.97723705    -2.6522505      0             -1.1869813      0.048422483  
     10010   0.98857137    -2.6718079      0             -1.1895439      0.017890358  
     10020   0.96962768    -2.6451269      0             -1.1912672      0.046514732  
     10030   0.99206437    -2.6793808      0             -1.1918794     -0.0099170143 
     10040   0.98874955    -2.6747657      0             -1.1922346      0.0035203482 
     10050   0.97892152    -2.6604994      0             -1.1927045      0.03956267   
     10060   0.97701179    -2.6574003      0             -1.1924688      0.048994361  
     10070   0.98935471    -2.6756214      0             -1.1921829      0.023354133  
     10080   0.99135297    -2.6773535      0             -1.1909189      0.02054005   
     10090   0.99909772    -2.6875444      0             -1.1894972      0.0082306619 
     10100   0.98947463    -2.6714872      0             -1.187869       0.038045316  
     10110   0.98444405    -2.6613897      0             -1.1853143      0.063993156  
     10120   0.98761359    -2.6640324      0             -1.1832046      0.058838233  
     10130   0.992421      -2.6682261      0             -1.18019        0.045668442  
     10140   0.98575745    -2.6550568      0             -1.1770121      0.068215128  
     10150   0.98574091    -2.651716       0             -1.1736961      0.076125718  
     10160   0.99871389    -2.6678701      0             -1.1703985      0.047350855  
     10170   1.0031353     -2.6717053      0             -1.1676042      0.034627785  
     10180   0.995767      -2.6565829      0             -1.1635299      0.052975259  
     10190   0.9987532     -2.6574899      0             -1.1599594      0.054002387  
     10200   1.0033419     -2.6602269      0             -1.1558161      0.053975838  
     10210   0.99864825    -2.6495678      0             -1.1521946      0.078449173  
     10220   1.0016878     -2.650416       0             -1.1484853      0.087129249  
     10230   1.0039264     -2.6499102      0             -1.144623       0.088348886  
     10240   1.0202481     -2.670524       0             -1.140764       0.053728898  
     10250   1.01956       -2.666114       0             -1.1373858      0.063716778  
     10260   1.0187187     -2.6624382      0             -1.1349713      0.08115863   
     10270   1.0233864     -2.6674871      0             -1.1330216      0.079481062  
     10280   1.0205527     -2.6619975      0             -1.1317808      0.095483729  
     10290   1.0275397     -2.6717105      0             -1.1310175      0.088539662  
     10300   1.0278644     -2.6722204      0             -1.1310405      0.085229075  
     10310   1.0242184     -2.6678154      0             -1.1321024      0.082001225  
     10320   1.0334346     -2.6838751      0             -1.1343433      0.047238036  
     10330   1.0221398     -2.6697539      0             -1.1371574      0.059767029  
     10340   1.0137382     -2.6607183      0             -1.1407193      0.073027127  
     10350   1.0239304     -2.680259       0             -1.1449776      0.046969531  
     10360   1.0129403     -2.6682782      0             -1.1494755      0.067496775  
     10370   1.011893      -2.6720686      0             -1.1548362      0.069999308  
     10380   1.0106323     -2.6756279      0             -1.1602859      0.068796377  
     10390   1.0188512     -2.6940113      0             -1.1663458      0.049463698  
     10400   1.0081558     -2.6843904      0             -1.1727615      0.069726656  
     10410   1.0101704     -2.6943684      0             -1.1797189      0.058591872  
     10420   1.0166175     -2.7112703      0             -1.186954       0.039029982  
     10430   0.99648745    -2.6881314      0             -1.1939981      0.074338286  
     10440   0.99949956    -2.7001878      0             -1.2015382      0.049999244  
     10450   0.99100428    -2.6948242      0             -1.2089124      0.045407875  
     10460   0.99116755    -2.7016404      0             -1.2154838      0.026827745  
     10470   0.9914185     -2.708861       0             -1.2223281      0.015054947  
     10480   0.99147103    -2.7150833      0             -1.2284716      0.0092346981 
     10490   0.9793451     -2.7026154      0             -1.2341854      0.032242341  
     10500   0.99390181    -2.7301223      0             -1.2398659      0.010139668  
     10510   0.97422416    -2.7053879      0             -1.2446362      0.071247762  
     10520   0.97969217    -2.7181808      0             -1.2492304      0.070676778  
     10530   0.9948331     -2.7449455      0             -1.2532928      0.043822757  
     10540   0.98952187    -2.7409544      0             -1.2572653      0.06804727   
     10550   0.98538594    -2.7379574      0             -1.2604697      0.088160964  
     10560   0.97140006    -2.7200725      0             -1.2635552      0.11738418   
     10570   0.97749535    -2.7314801      0             -1.2658236      0.093655583  
     10580   0.98027975    -2.7368665      0             -1.267035       0.075745946  
     10590   0.97616849    -2.7313367      0             -1.2676697      0.071438959  
     10600   0.97989021    -2.7374813      0             -1.2682339      0.045055507  
     10610   0.99343684    -2.7577114      0             -1.2681522      0.0037091656 
     10620   0.97705009    -2.7323471      0             -1.2673582      0.040952184  
     10630   0.97496023    -2.7276226      0             -1.2657673      0.056349496  
     10640   0.97234271    -2.7214406      0             -1.2635099      0.065612794  
     10650   0.98922629    -2.7445668      0             -1.2613208      0.038286736  
     10660   0.97902604    -2.7259112      0             -1.2579595      0.073436134  
     10670   0.98450605    -2.7306384      0             -1.25447        0.073994033  
     10680   0.9876494     -2.7313268      0             -1.2504452      0.078823669  
     10690   0.99011202    -2.7304478      0             -1.2458739      0.074397374  
     10700   0.99306941    -2.7302447      0             -1.2412365      0.065587012  
     10710   1.0098099     -2.7498161      0             -1.2357072      0.03273635   
     10720   0.99454705    -2.7215071      0             -1.2302833      0.074727509  
     10730   1.0010981     -2.726468       0             -1.2254215      0.071685619  
     10740   1.0067171     -2.7303039      0             -1.2208323      0.068256752  
     10750   0.99590458    -2.7086423      0             -1.215383       0.097936175  
     10760   1.0061054     -2.7188033      0             -1.2102487      0.071190681  
     10770   1.0151636     -2.7277946      0             -1.2056583      0.041755408  
     10780   1.0143829     -2.7222895      0             -1.2013237      0.036780012  
     10790   1.0153988     -2.7201399      0             -1.1976509      0.034111806  
     10800   1.014879      -2.7158645      0             -1.1941549      0.040586911  
     10810   1.0006921     -2.6915554      0             -1.1911177      0.080595828  
     10820   1.0118154     -2.7054249      0             -1.188309       0.066977371  
     10830   1.0244011     -2.7216699      0             -1.1856829      0.046873703  
     10840   1.0161442     -2.7073537      0             -1.1837471      0.072951865  
     10850   1.0173829     -2.7077568      0             -1.1822929      0.08221087   
     10860   1.0224665     -2.7145139      0             -1.1814276      0.086289619  
     10870   1.0149513     -2.7032285      0             -1.1814106      0.10953078   
     10880   1.0231027     -2.7159111      0             -1.1818709      0.089107336  
     10890   1.0211        -2.7137407      0             -1.1827033      0.083148662  
     10900   1.0287007     -2.7265512      0             -1.1841174      0.055126265  
     10910   1.0182403     -2.7136321      0             -1.1868826      0.074450354  
     10920   1.0154126     -2.7128545      0             -1.1903449      0.081961447  
     10930   1.0147283     -2.7146319      0             -1.1931483      0.082293923  
     10940   1.0239801     -2.7324089      0             -1.1970531      0.055004609  
     10950   1.0260755     -2.7403865      0             -1.201889       0.04292556   
     10960   1.0125107     -2.7254161      0             -1.2072575      0.070721017  
     10970   1.0155582     -2.7356694      0             -1.2129414      0.060046989  
     10980   1.0206068     -2.7499179      0             -1.2196201      0.038997331  
     10990   1.0102653     -2.7408645      0             -1.2260726      0.048978862  
     11000   1.0027946     -2.7366743      0             -1.2330841      0.053616144  
     11010   0.99444205    -2.7318161      0             -1.2407497      0.058675898  
     11020   0.98018156    -2.7169537      0             -1.2472695      0.068368565  
     11030   0.9890736     -2.7369793      0             -1.2539623      0.029207005  
     11040   0.98440947    -2.7360597      0             -1.2600362      0.024311532  
     11050   0.98938442    -2.7490114      0             -1.2655284      0.0056034443 
     11060   0.98564175    -2.7482809      0             -1.2704097      0.015908371  
     11070   0.97867246    -2.7427047      0             -1.2752832      0.039351253  
     11080   0.98116291    -2.7504042      0             -1.2792485      0.040113891  
     11090   0.97490982    -2.7441542      0             -1.2823744      0.05551929   
     11100   0.97902078    -2.7538372      0             -1.2858934      0.044199684  
     11110   0.97298034    -2.7468644      0             -1.2879777      0.056194391  
     11120   0.97123333    -2.7457058      0             -1.2894386      0.067503392  
     11130   0.96433917    -2.7359977      0             -1.2900675      0.085877947  
     11140   0.9675501     -2.7405927      0             -1.2898481      0.072257925  
     11150   0.98383643    -2.763993       0             -1.2888287      0.027829227  
     11160   0.97718257    -2.7517386      0             -1.2865511      0.038173324  
     11170   0.99150364    -2.7700805      0             -1.2834199      0.015920187  
     11180   0.98268318    -2.7542222      0             -1.280787       0.052382115  
     11190   0.98032508    -2.7469694      0             -1.27707        0.074107183  
     11200   0.98602346    -2.7515211      0             -1.2730775      0.060569347  
     11210   0.98690383    -2.7489446      0             -1.269181       0.047669357  
     11220   0.99255987    -2.7533155      0             -1.2650712      0.021711943  
     11230   0.98040948    -2.7297463      0             -1.2597203      0.045715445  
     11240   0.98484173    -2.7307513      0             -1.2540796      0.039543458  
     11250   0.99817212    -2.7444615      0             -1.2478022      0.018201683  
     11260   0.99325045    -2.7303927      0             -1.2411129      0.044996466  
     11270   0.9934617     -2.7242072      0             -1.2346107      0.064434813  
     11280   1.0057769     -2.7360528      0             -1.2279909      0.048883612  
     11290   1.009696      -2.7358553      0             -1.2219171      0.044508009  
     11300   1.0029087     -2.7193294      0             -1.2155681      0.059243802  
     11310   1.0130184     -2.7285747      0             -1.2096549      0.035072412  
     11320   1.0104141     -2.7193495      0             -1.2043345      0.042539534  
     11330   1.0218673     -2.7314437      0             -1.1992559      0.027525705  
     11340   1.0289877     -2.7371323      0             -1.1942681      0.026001029  
     11350   1.018498      -2.7178414      0             -1.1907055      0.059418165  
     11360   1.0196342     -2.7166994      0             -1.1878599      0.061451114  
     11370   1.0252525     -2.7222871      0             -1.1850235      0.051753602  
     11380   1.0183246     -2.7097795      0             -1.1829036      0.073003167  
     11390   1.0196779     -2.7105943      0             -1.1816894      0.072484329  
     11400   1.0226328     -2.7143864      0             -1.1810508      0.064797338  
     11410   1.0207888     -2.7116213      0             -1.1810506      0.072484453  
     11420   1.0235077     -2.717053       0             -1.1824055      0.065248506  
     11430   1.0121549     -2.7010325      0             -1.1834074      0.081250576  
     11440   1.0239132     -2.7203816      0             -1.1851261      0.04794058   
     11450   1.0212344     -2.719037       0             -1.1877981      0.044917985  
     11460   1.0242485     -2.7268039      0             -1.1910457      0.038703129  
     11470   1.0141195     -2.7146356      0             -1.1940648      0.067139563  
     11480   1.0146098     -2.7199655      0             -1.1986595      0.066000846  
     11490   1.0103294     -2.7180412      0             -1.2031533      0.066783097  
     11500   1.0044505     -2.713989       0             -1.207916       0.066011422  
     11510   1.0052947     -2.7205347      0             -1.2131959      0.051306401  
     11520   1.0145142     -2.7407093      0             -1.2195467      0.023055904  
     11530   0.99431229    -2.715223       0             -1.2243511      0.060296526  
     11540   0.99351136    -2.720067       0             -1.230396       0.049802907  
     11550   1.0021012     -2.7384658      0             -1.2359152      0.015510788  
     11560   0.97743116    -2.7064673      0             -1.240907       0.058490401  
     11570   0.99245422    -2.7340016      0             -1.2459157      0.018090298  
     11580   0.98948333    -2.7341813      0             -1.25055        0.018946985  
     11590   0.98169802    -2.7263636      0             -1.2544056      0.033102325  
     11600   0.97926002    -2.726143       0             -1.2578405      0.033590685  
     11610   0.97896689    -2.7287325      0             -1.2608696      0.031680459  
     11620   0.96491227    -2.7096546      0             -1.2628652      0.065020059  
     11630   0.96676015    -2.7137065      0             -1.2641463      0.066810277  
     11640   0.96964132    -2.718305       0             -1.2644248      0.059731999  
     11650   0.97852131    -2.7313371      0             -1.2641423      0.03736448   
     11660   0.97449595    -2.7247368      0             -1.2635775      0.046134262  
     11670   0.98869293    -2.7441006      0             -1.2616544      0.020586214  
     11680   0.98285446    -2.7329812      0             -1.2592892      0.037277109  
     11690   0.97854661    -2.7242946      0             -1.2570618      0.046796922  
     11700   0.98738352    -2.7340582      0             -1.2535754      0.02939759   
     11710   0.99799889    -2.7462789      0             -1.2498794      0.016563241  
     11720   0.99067434    -2.7312558      0             -1.2458387      0.053989947  
     11730   0.99322905    -2.7312151      0             -1.2419675      0.069821049  
     11740   1.0027053     -2.7415697      0             -1.2381134      0.060859585  
     11750   1.0140024     -2.7544985      0             -1.2341033      0.050799162  
     11760   1.01481       -2.7514602      0             -1.2298542      0.06629994   
     11770   1.0058599     -2.734849       0             -1.2266627      0.098215567  
     11780   1.0131582     -2.7426723      0             -1.2235428      0.083382839  
     11790   1.0308598     -2.7665615      0             -1.2208903      0.037721601  
     11800   1.0357504     -2.77221        0             -1.2192057      0.024763301  
     11810   1.0141026     -2.7386236      0             -1.2180781      0.072075971  
     11820   1.0165183     -2.742054       0             -1.2178864      0.068801157  
     11830   1.0113469     -2.7337974      0             -1.2173838      0.084223546  
     11840   1.0177864     -2.7439835      0             -1.2179146      0.078446814  
     11850   1.0032061     -2.7230134      0             -1.2188062      0.1114533    
     11860   1.0121728     -2.7372794      0             -1.2196275      0.086614141  
     11870   1.0119115     -2.7383538      0             -1.2210937      0.081734257  
     11880   1.015771      -2.7465022      0             -1.2234551      0.069933544  
     11890   1.0165958     -2.7498702      0             -1.2255865      0.069460297  
     11900   1.0111001     -2.7448852      0             -1.2288417      0.089733594  
     11910   1.0039192     -2.7367224      0             -1.231446       0.10461476   
     11920   1.0101086     -2.7498353      0             -1.2352785      0.075685124  
     11930   1.0215931     -2.770623       0             -1.2388463      0.031985049  
     11940   1.018215      -2.7696386      0             -1.2429271      0.034772254  
     11950   1.0017794     -2.7497603      0             -1.2476923      0.068042627  
     11960   1.0013341     -2.754042       0             -1.2526418      0.062967341  
     11970   0.98697792    -2.7371426      0             -1.2572679      0.077825666  
     11980   0.99162339    -2.7478171      0             -1.2609769      0.04828783   
     11990   0.98095367    -2.7351234      0             -1.2642815      0.052465366  
     12000   0.9858712     -2.7461754      0             -1.2679601      0.030075644  
     12010   0.98367546    -2.7460194      0             -1.2710964      0.02967657   
     12020   0.96661907    -2.7228017      0             -1.273453       0.066557629  
     12030   0.96867555    -2.7269239      0             -1.2744917      0.059162285  
     12040   0.98265501    -2.7487753      0             -1.2753823      0.018009584  
     12050   0.98826664    -2.7573279      0             -1.2755209      0.000663272  
     12060   0.98755558    -2.7563886      0             -1.2756478      0.0029754391 
     12070   0.97272598    -2.7334349      0             -1.2749296      0.038230297  
     12080   0.9753392     -2.7356218      0             -1.2731982      0.037811084  
     12090   0.98426924    -2.7472649      0             -1.2714516      0.029232392  
     12100   0.98033718    -2.7385384      0             -1.2686208      0.049147957  
     12110   0.98737725    -2.7462789      0             -1.2658054      0.04212507   
     12120   0.97989749    -2.7317665      0             -1.2625082      0.067689283  
     12130   0.99688508    -2.7534381      0             -1.2587086      0.049441584  
     12140   0.99246846    -2.7422572      0             -1.25415        0.074560299  
     12150   0.99716896    -2.7445572      0             -1.2494021      0.074639773  
     12160   0.99535319    -2.7374374      0             -1.2450048      0.084458891  
     12170   1.0011069     -2.7418256      0             -1.2407659      0.073883125  
     12180   1.006911      -2.745448       0             -1.2356857      0.059873119  
     12190   1.0148202     -2.7525136      0             -1.2308922      0.044843892  
     12200   1.01402       -2.7473264      0             -1.2269048      0.056539319  
     12210   1.0087032     -2.7352794      0             -1.2228298      0.082169386  
     12220   1.0235638     -2.7541605      0             -1.219429       0.063294484  
     12230   1.0262807     -2.7548612      0             -1.216056       0.068250287  
     12240   1.0193881     -2.7425273      0             -1.2140568      0.088471475  
     12250   1.020721      -2.7426909      0             -1.2122218      0.085256004  
     12260   1.0297634     -2.7557993      0             -1.211772       0.058833851  
     12270   1.0241771     -2.747742       0             -1.2120908      0.068093322  
     12280   1.0215135     -2.7443561      0             -1.2126988      0.069293041  
     12290   1.0246158     -2.7506777      0             -1.2143688      0.053409142  
     12300   1.0210824     -2.7475177      0             -1.2165066      0.05965452   
     12310   1.0234422     -2.7546021      0             -1.220053       0.050868532  
     12320   1.0080067     -2.7351142      0             -1.223709       0.07759619   
     12330   1.0097121     -2.7417775      0             -1.2278152      0.064856958  
     12340   1.0160928     -2.7552105      0             -1.231681       0.034910172  
     12350   1.0078016     -2.7470982      0             -1.2360005      0.041696056  
     12360   1.0118904     -2.7580822      0             -1.2408537      0.036372795  
     12370   0.98878858    -2.7287255      0             -1.2461359      0.088804812  
     12380   0.98618532    -2.7299668      0             -1.2512805      0.081025625  
     12390   0.98710008    -2.7357998      0             -1.255742       0.0508309    
     12400   1.0048199     -2.7659761      0             -1.2593492     -0.0022520813 
     12410   0.99092923    -2.749627       0             -1.2638277      0.025931285  
     12420   0.98618343    -2.7463086      0             -1.2676252      0.040730347  
     12430   0.98458265    -2.7476351      0             -1.2713519      0.054953487  
     12440   0.97924868    -2.7431656      0             -1.2748801      0.076233644  
     12450   0.98361774    -2.7519501      0             -1.2771137      0.066672579  
     12460   0.99978271    -2.7784689      0             -1.2793947      0.026032079  
     12470   0.98650102    -2.7602762      0             -1.2811166      0.050446014  
     12480   0.98941679    -2.7663363      0             -1.2828048      0.038988154  
     12490   0.98488475    -2.7601         0             -1.2833638      0.044211228  
     12500   0.98235002    -2.7566816      0             -1.283746       0.050739486  
     12510   0.98845975    -2.7661891      0             -1.2840926      0.038601955  
     12520   0.99166721    -2.7709592      0             -1.2840534      0.034765918  
     12530   0.9825464     -2.7568102      0             -1.2835801      0.058501681  
     12540   0.99138099    -2.7693349      0             -1.2828583      0.041185149  
     12550   1.012222      -2.7998056      0             -1.2820799      0.0088149016 
     12560   1.0015731     -2.7836443      0             -1.2818856      0.049838236  
     12570   0.99731557    -2.7765344      0             -1.2811595      0.077198788  
     12580   1.0045764     -2.7866311      0             -1.2803692      0.073718541  
     12590   1.0016423     -2.7810223      0             -1.2791599      0.083172022  
     12600   1.0095238     -2.7928124      0             -1.2791324      0.074009114  
     12610   0.98864345    -2.7610691      0             -1.2786971      0.12822977   
     12620   0.99467918    -2.7701106      0             -1.2786886      0.11569144   
     12630   1.0114582     -2.7945307      0             -1.2779503      0.070210584  
     12640   0.99680108    -2.7724021      0             -1.2777986      0.087553604  
     12650   1.0066616     -2.7862939      0             -1.2769054      0.055829531  
     12660   1.0015752     -2.7776371      0             -1.2758753      0.059428712  
     12670   1.0066543     -2.7853748      0             -1.2759974      0.043316558  
     12680   1.0108262     -2.7913645      0             -1.2757317      0.027130901  
     12690   1.0141714     -2.796319       0             -1.2756704      0.018878456  
     12700   0.99881363    -2.7738111      0             -1.2761899      0.052727334  
     12710   0.99990084    -2.7762433      0             -1.276992       0.052554961  
     12720   0.99882813    -2.7754208      0             -1.2777779      0.055823624  
     12730   0.99004943    -2.7629129      0             -1.2784328      0.068237694  
     12740   0.99192284    -2.7652587      0             -1.2779696      0.053467153  
     12750   0.99019479    -2.7624106      0             -1.2777125      0.049847477  
     12760   0.98486789    -2.7539583      0             -1.2772474      0.052592212  
     12770   0.99751605    -2.772379       0             -1.2767034      0.018615583  
     12780   0.98536325    -2.7530367      0             -1.2755831      0.043130345  
     12790   0.98204302    -2.746166       0             -1.2736907      0.052107397  
     12800   0.99337573    -2.7609939      0             -1.2715263      0.023650302  
     12810   1.0081976     -2.7816472      0             -1.2699557     -0.0039709661 
     12820   0.9958475     -2.7603452      0             -1.2671715      0.039797757  
     12830   0.98667933    -2.744295       0             -1.2648681      0.069806231  
     12840   0.98796168    -2.743582       0             -1.2622323      0.067288148  
     12850   0.99329094    -2.7489125      0             -1.259572       0.0544584    
     12860   0.99983355    -2.7555568      0             -1.2564064      0.038035305  
     12870   1.0056392     -2.7607416      0             -1.2528862      0.029397126  
     12880   1.0007041     -2.7504288      0             -1.249973       0.048368951  
     12890   1.0124765     -2.7648815      0             -1.2467743      0.03920175   
     12900   0.99582303    -2.7375262      0             -1.2443891      0.090170893  
     12910   1.0008861     -2.7430004      0             -1.2422718      0.083604678  
     12920   0.99317214    -2.7285475      0             -1.2393852      0.092510325  
     12930   0.99985381    -2.7355348      0             -1.236354       0.070369114  
     12940   1.0069909     -2.7436039      0             -1.2337217      0.051362832  
     12950   1.008257      -2.7429299      0             -1.2311494      0.048839773  
     12960   1.0021605     -2.7317113      0             -1.2290718      0.065609127  
     12970   1.0144926     -2.7477539      0             -1.2266238      0.045878022  
     12980   1.0060749     -2.7329281      0             -1.2244194      0.077306602  
     12990   1.0075405     -2.733396       0             -1.2226898      0.087841797  
     13000   1.012415      -2.739755       0             -1.22174        0.085369457  
     13010   1.0136893     -2.7405473      0             -1.2206215      0.078178412  
     13020   1.0171604     -2.7454355      0             -1.2203052      0.056505085  
     13030   1.0199358     -2.7489108      0             -1.219619       0.040221868  
     13040   1.0158433     -2.7436675      0             -1.2205121      0.039244081  
     13050   1.0094294     -2.7348849      0             -1.2213465      0.049760746  
     13060   1.0109587     -2.7384171      0             -1.2225857      0.051328105  
     13070   0.99831344    -2.7206271      0             -1.2237559      0.085281165  
     13080   1.0049212     -2.7322093      0             -1.2254305      0.070300461  
     13090   1.01334       -2.7465105      0             -1.2271085      0.048473379  
     13100   1.0058224     -2.7372431      0             -1.2291129      0.058989567  
     13110   1.0033924     -2.7359734      0             -1.2314869      0.060240682  
     13120   0.99683558    -2.7286512      0             -1.2339959      0.068600105  
     13130   1.0058363     -2.7444151      0             -1.2362641      0.042626524  
     13140   1.0048676     -2.7458442      0             -1.2391458      0.045514967  
     13150   1.0023536     -2.7441324      0             -1.2412035      0.056647764  
     13160   0.9816326     -2.7155029      0             -1.243643       0.10573424   
     13170   0.99260896    -2.7341392      0             -1.2458213      0.085599994  
     13180   1.0003792     -2.7475654      0             -1.2475967      0.073053011  
     13190   0.98710138    -2.728939       0             -1.2488792      0.10099294   
     13200   0.99399938    -2.7406371      0             -1.2502345      0.072470314  
     13210   0.98961736    -2.7347413      0             -1.250909       0.059103828  
     13220   1.0043794     -2.757916       0             -1.2519496      0.011596303  
     13230   0.99252078    -2.7410715      0             -1.2528859      0.039822319  
     13240   0.98208214    -2.7260735      0             -1.2535396      0.074198077  
     13250   0.97869912    -2.7211075      0             -1.2536461      0.082899862  
     13260   0.99323884    -2.7423988      0             -1.2531365      0.050324834  
     13270   0.9855595     -2.7301903      0             -1.2524424      0.069727428  
     13280   0.97471574    -2.712604       0             -1.2511152      0.099943087  
     13290   0.98885351    -2.7315901      0             -1.2489031      0.065685785  
     13300   0.99365574    -2.736664       0             -1.2467766      0.048075607  
     13310   0.9954892     -2.7376318      0             -1.2449953      0.042588202  
     13320   0.98907626    -2.7247187      0             -1.2416978      0.055724473  
     13330   0.99068259    -2.724664       0             -1.2392346      0.049104585  
     13340   0.99307565    -2.7252374      0             -1.2362198      0.034054949  
     13350   0.9974356     -2.7285229      0             -1.232968       0.016531007  
     13360   0.98992135    -2.7138517      0             -1.2295636      0.027842997  
     13370   0.99991283    -2.7254144      0             -1.2261451      0.0037079215 
     13380   1.0044948     -2.7285802      0             -1.2224407     -0.0026395736 
     13390   0.99351272    -2.7084022      0             -1.2187292      0.03601496   
     13400   0.99472942    -2.7061667      0             -1.2146694      0.052380174  
     13410   1.0003496     -2.7104811      0             -1.2105569      0.051485049  
     13420   1.0071427     -2.7173381      0             -1.2072282      0.045161299  
     13430   0.99852884    -2.7008195      0             -1.2036253      0.07509774   
     13440   1.0020329     -2.702485       0             -1.2000369      0.076564646  
     13450   1.0072574     -2.7071035      0             -1.1968217      0.075562839  
     13460   1.001706      -2.6952109      0             -1.1932529      0.096347387  
     13470   1.0132203     -2.7089472      0             -1.1897247      0.075456768  
     13480   1.0148836     -2.7087819      0             -1.1870654      0.068369077  
     13490   1.015741      -2.7076338      0             -1.1846317      0.061544822  
     13500   1.0096935     -2.6963428      0             -1.1824083      0.074473027  
     13510   1.009787      -2.6948721      0             -1.1807974      0.076422734  
     13520   1.0110664     -2.6954211      0             -1.1794282      0.069601545  
     13530   1.0167725     -2.7032298      0             -1.1786812      0.050003066  
     13540   1.0190293     -2.7061236      0             -1.1781911      0.048289383  
     13550   1.0074372     -2.6887594      0             -1.1782082      0.083610794  
     13560   1.0163047     -2.7021007      0             -1.1782533      0.071794895  
     13570   1.0147438     -2.7003509      0             -1.1788441      0.068442824  
     13580   1.0249121     -2.7166181      0             -1.1798649      0.032727968  
     13590   1.0132776     -2.701196       0             -1.1818875      0.046794159  
     13600   1.0140034     -2.7046557      0             -1.1842589      0.036271334  
     13610   0.99797614    -2.683899       0             -1.1875336      0.056155367  
     13620   1.002948      -2.6942896      0             -1.1904694      0.027758612  
     13630   1.0078026     -2.7042645      0             -1.1931654      0.0015683846 
     13640   1.001658      -2.6981938      0             -1.1963077      0.0053721738 
     13650   0.99956895    -2.6978625      0             -1.1991088      0.0042222116 
     13660   0.9968278     -2.696571       0             -1.2019274      0.013904226  
     13670   0.99414652    -2.6955277      0             -1.2049044      0.029090449  
     13680   0.99116802    -2.6936539      0             -1.2074966      0.044151464  
     13690   0.98115843    -2.6812032      0             -1.2100542      0.07588      
     13700   0.97894159    -2.6798156      0             -1.2119906      0.087717653  
     13710   0.99253253    -2.7018075      0             -1.2136043      0.049172736  
     13720   0.9893149     -2.6979673      0             -1.2145885      0.040586741  
     13730   0.98038714    -2.684975       0             -1.2149825      0.050051839  
     13740   0.98363175    -2.6898005      0             -1.2149431      0.035925097  
     13750   0.98033905    -2.6846773      0             -1.2147569      0.036899109  
     13760   0.98979727    -2.6982362      0             -1.2141342      0.01325859   
     13770   0.98770598    -2.6934038      0             -1.2124375      0.014036244  
     13780   0.98030941    -2.680439       0             -1.210563       0.032714861  
     13790   0.97773284    -2.674676       0             -1.2086634      0.042296667  
     13800   0.98037247    -2.6761289      0             -1.2061585      0.036220546  
     13810   0.98157897    -2.6743664      0             -1.2025869      0.03838298   
     13820   0.98543323    -2.6761484      0             -1.1985898      0.038789276  
     13830   0.9809237     -2.6654159      0             -1.1946189      0.051279969  
     13840   0.99239391    -2.6773767      0             -1.1893813      0.022644988  
     13850   0.99180173    -2.6714016      0             -1.1842941      0.026015693  
     13860   0.99128788    -2.665233       0             -1.178896       0.043798925  
     13870   0.98912247    -2.6563123      0             -1.173222       0.057384497  
     13880   0.99558664    -2.6599904      0             -1.1672078      0.041271024  
     13890   1.0096194     -2.6746436      0             -1.1608203      0.0087994643 
     13900   1.008556      -2.6672416      0             -1.1550127      0.025311364  
     13910   0.99137004    -2.6360579      0             -1.1495976      0.086980917  
     13920   1.0063925     -2.6530811      0             -1.1440961      0.06755985   
     13930   1.0181789     -2.6652316      0             -1.1385741      0.046874511  
     13940   1.0124445     -2.6517203      0             -1.1336611      0.064182083  
     13950   1.0065142     -2.6378958      0             -1.1287284      0.07891681   
     13960   1.0160142     -2.6476055      0             -1.1241938      0.05688205   
     13970   1.0230108     -2.6541725      0             -1.1202701      0.046839156  
     13980   1.0127996     -2.635212       0             -1.1166203      0.083682028  
     13990   1.0154086     -2.6367211      0             -1.1142175      0.09101387   
     14000   1.0302338     -2.6564614      0             -1.1117288      0.060117914  
     14010   1.0342381     -2.6609109      0             -1.1101743      0.047518186  
     14020   1.0207675     -2.6398279      0             -1.1092891      0.074392799  
     14030   1.0204035     -2.6394905      0             -1.1094975      0.072079228  
     14040   1.0157929     -2.6336758      0             -1.1105959      0.069562952  
     14050   1.0231306     -2.645758       0             -1.111676       0.048712562  
     14060   1.0118818     -2.6307141      0             -1.1134986      0.07006094   
     14070   1.0161261     -2.6399229      0             -1.1163433      0.060168923  
     14080   1.0060233     -2.6276212      0             -1.1191898      0.081831692  
     14090   1.0002293     -2.6222947      0             -1.1225509      0.091431422  
     14100   1.0114603     -2.6417462      0             -1.1251626      0.058104541  
     14110   1.0083954     -2.6406233      0             -1.1286352      0.055823432  
     14120   1.0152959     -2.6549198      0             -1.1325851      0.040450122  
     14130   0.99737706    -2.6318296      0             -1.1363624      0.076923587  
     14140   1.0017009     -2.6425222      0             -1.1405719      0.068021976  
     14150   1.0043069     -2.6509455      0             -1.1450876      0.065900448  
     14160   0.99761168    -2.6451998      0             -1.1493809      0.081601801  
     14170   0.99364724    -2.6432063      0             -1.1533317      0.077748426  
     14180   1.007958      -2.6685946      0             -1.1572623      0.027534432  
     14190   1.0077299     -2.6719548      0             -1.1609645      0.016113219  
     14200   0.99554747    -2.658678       0             -1.1659542      0.044603276  
     14210   0.98307581    -2.6443651      0             -1.1703413      0.079520036  
     14220   0.991901      -2.6611988      0             -1.1739424      0.060915052  
     14230   0.99356179    -2.6671118      0             -1.1773652      0.051287562  
     14240   0.98622806    -2.6588694      0             -1.180119       0.064557968  
     14250   0.98358491    -2.6575342      0             -1.182747       0.069918543  
     14260   0.98586049    -2.6633378      0             -1.1851386      0.061222254  
[...]
     53510   1.0128074     -2.9173255      0             -1.398722       0.034383898  
     53520   1.0074296     -2.9129296      0             -1.4023896      0.039735244  
     53530   1.0135335     -2.9260584      0             -1.4063662      0.018624794  
     53540   1.0001465     -2.9113229      0             -1.4117032      0.027704421  
     53550   1.0019908     -2.9201473      0             -1.4177622      0.0076968409 
     53560   1.0085133     -2.9379676      0             -1.4258026     -0.013814553  
     53570   0.9781934     -2.9005091      0             -1.4338059      0.048885012  
     53580   0.98118222    -2.9133969      0             -1.4422123      0.029641512  
     53590   0.98332352    -2.9249156      0             -1.4505203      0.0057686811 
     53600   0.97424879    -2.9186066      0             -1.4578179      0.019474366  
     53610   0.97128727    -2.920493       0             -1.4641449      0.024932736  
     53620   0.97424059    -2.9296151      0             -1.4688388      0.019472415  
     53630   0.96644984    -2.9215853      0             -1.4724905      0.040560134  
     53640   0.97896293    -2.9429755      0             -1.4751185      0.018965634  
     53650   0.96632807    -2.9251561      0             -1.4762438      0.046011172  
     53660   0.97848903    -2.9435069      0             -1.4763604      0.016742132  
     53670   0.97267323    -2.9341756      0             -1.4757493      0.029834033  
     53680   0.96648367    -2.9238704      0             -1.4747248      0.053182773  
     53690   0.96023707    -2.9126485      0             -1.4728691      0.071750206  
     53700   0.97207352    -2.9276716      0             -1.4701446      0.051415895  
     53710   0.97792347    -2.9327329      0             -1.4664345      0.04810446   
     53720   0.97185743    -2.9192321      0             -1.4620291      0.074329618  
     53730   0.97543747    -2.9203003      0             -1.4577293      0.080498855  
     53740   0.97259443    -2.911096       0             -1.4527879      0.091596287  
     53750   1.0074859     -2.9581759      0             -1.4475516      0.0095671339 
     53760   1.0162714     -2.9665673      0             -1.44277       -0.01233008   
     53770   0.99347747    -2.9288727      0             -1.4392526      0.048232094  
     53780   1.0023387     -2.938302       0             -1.4353953      0.047193304  
     53790   0.99836504    -2.9288667      0             -1.4319182      0.073587493  
     53800   1.0007202     -2.930295       0             -1.4298151      0.074293334  
     53810   0.99539855    -2.9197865      0             -1.427286       0.082451133  
     53820   1.0035544     -2.9297996      0             -1.4250701      0.066260886  
     53830   1.0079041     -2.9342496      0             -1.4229981      0.055282084  
     53840   0.99412912    -2.9119687      0             -1.4213715      0.078847915  
     53850   0.99261228    -2.9082034      0             -1.4198805      0.069620984  
     53860   1.0073403     -2.9283933      0             -1.4179873      0.028198837  
     53870   1.002742      -2.920045       0             -1.4165337      0.036253249  
     53880   0.986945      -2.8950147      0             -1.4151894      0.075204658  
     53890   0.98585497    -2.8922843      0             -1.4140933      0.080086573  
     53900   0.9867768     -2.8921188      0             -1.4125457      0.07638297   
     53910   0.99815616    -2.9069712      0             -1.4103358      0.050631454  
     53920   0.9967981     -2.9030801      0             -1.408481       0.049570917  
     53930   0.99947798    -2.9056141      0             -1.4069968      0.036626728  
     53940   0.99872688    -2.9027151      0             -1.405224       0.031270992  
     53950   0.99951172    -2.9016418      0             -1.4029739      0.033462892  
     53960   0.98609952    -2.8800349      0             -1.4014773      0.071411884  
     53970   0.98926115    -2.8823493      0             -1.3990511      0.076239449  
     53980   0.99360061    -2.8864303      0             -1.3966255      0.081456354  
     53990   1.0016249     -2.8957143      0             -1.3938779      0.078296891  
     54000   1.0024299     -2.8942094      0             -1.391166       0.087643408  
     54010   1.0109315     -2.9047417      0             -1.388951       0.079343325  
     54020   1.004588      -2.8924206      0             -1.3861413      0.10609765   
     54030   1.0053514     -2.8919723      0             -1.3845484      0.11154929   
     54040   1.0094371     -2.8964727      0             -1.3829227      0.094548693  
     54050   1.0207675     -2.911695       0             -1.3811563      0.05849053   
     54060   1.019842      -2.9090449      0             -1.3798938      0.056087827  
     54070   1.0073976     -2.8899327      0             -1.3794407      0.089266328  
     54080   0.99445498    -2.8700634      0             -1.3789776      0.11783371   
     54090   1.0007099     -2.8791455      0             -1.3786811      0.09160607   
     54100   1.0096405     -2.8917415      0             -1.3778865      0.057549029  
     54110   1.0064291     -2.8859366      0             -1.3768968      0.047832855  
     54120   1.0047586     -2.8831404      0             -1.3766053      0.035889081  
     54130   1.0153934     -2.8996187      0             -1.3771379      0.010301548  
     54140   1.0142891     -2.8980191      0             -1.377194       0.020776227  
     54150   1.0008417     -2.8794339      0             -1.3787719      0.06875619   
     54160   0.99334947    -2.8698255      0             -1.3803973      0.099247839  
     54170   1.0032529     -2.8868471      0             -1.3825697      0.073566404  
     54180   1.0103709     -2.9003817      0             -1.3854316      0.047282732  
     54190   0.98932032    -2.8723754      0             -1.3889885      0.079103377  
     54200   0.9972548     -2.8892535      0             -1.3939697      0.04594399   
     54210   0.98978859    -2.8827829      0             -1.3986939      0.040895673  
     54220   0.98745418    -2.8850865      0             -1.4044978      0.028979716  
     54230   0.97410055    -2.8693969      0             -1.4088306      0.04015782   
     54240   0.98501475    -2.890183       0             -1.4132519      0.0023009977 
     54250   0.98236726    -2.8903343      0             -1.4173729      0.0021550661 
     54260   0.97788103    -2.8868404      0             -1.4206056      0.012939606  
     54270   0.97308722    -2.8823796      0             -1.4233326      0.030121832  
     54280   0.95952573    -2.8641127      0             -1.4253998      0.068887537  
     54290   0.96219376    -2.8687526      0             -1.4260393      0.063438553  
     54300   0.96268769    -2.8697953      0             -1.4263414      0.053794101  
     54310   0.95909193    -2.8636338      0             -1.4255714      0.047167202  
     54320   0.95970814    -2.8618941      0             -1.4229078      0.034683568  
     54330   0.96558402    -2.8669175      0             -1.4191208      0.015424853  
     54340   0.96246849    -2.8576858      0             -1.4145606      0.017807903  
     54350   0.96427957    -2.8538227      0             -1.4079819      0.009890555  
     54360   0.96359839    -2.8454826      0             -1.4006632      0.0052136518 
     54370   0.96709944    -2.8429347      0             -1.3928658      0.0034618857 
     54380   0.9704817     -2.8400599      0             -1.3849196      0.01063738   
     54390   0.97009965    -2.8314409      0             -1.3768735      0.024406253  
     54400   0.98277256    -2.8432497      0             -1.3696805      0.0089141222 
     54410   0.98446542    -2.839088       0             -1.3629805      0.023642194  
     54420   0.97024785    -2.8115173      0             -1.3567277      0.071504705  
     54430   0.99063931    -2.8365959      0             -1.3512313      0.038739211  
     54440   0.99895116    -2.8436725      0             -1.3458451      0.035608648  
     54450   0.99022488    -2.8256623      0             -1.3409191      0.071463217  
     54460   0.99519376    -2.829036       0             -1.3368425      0.068666834  
     54470   0.99020188    -2.8169292      0             -1.3322205      0.073908106  
     54480   1.0008232     -2.8287237      0             -1.3280894      0.046792587  
     54490   1.0106725     -2.8403255      0             -1.3249232      0.01991398   
     54500   1.012712      -2.8405767      0             -1.3221163      0.01289368   
     54510   1.0113982     -2.8358663      0             -1.3193759      0.022264855  
     54520   1.014646      -2.8386347      0             -1.3172745      0.02353895   
     54530   1.0099764     -2.8299398      0             -1.3155812      0.039939564  
     54540   1.0100414     -2.8291696      0             -1.3147136      0.042745587  
     54550   1.0243754     -2.8497296      0             -1.3137812      0.013808688  
     54560   1.0205656     -2.8439249      0             -1.3136889      0.03481873   
     54570   1.0076288     -2.8247986      0             -1.3139601      0.081215483  
     54580   1.0075024     -2.8255523      0             -1.3149032      0.093238217  
     54590   1.0155734     -2.8383641      0             -1.3156133      0.074532933  
     54600   1.0229768     -2.8506291      0             -1.3167778      0.054883802  
     54610   1.0110377     -2.8349232      0             -1.3189732      0.075393339  
     54620   1.0144818     -2.8424642      0             -1.3213502      0.059454548  
     54630   1.0130917     -2.8439516      0             -1.3249218      0.055052706  
     54640   1.0116636     -2.8454356      0             -1.3285472      0.054822168  
     54650   1.0110604     -2.8485256      0             -1.3325416      0.055351488  
     54660   1.02254       -2.870408       0             -1.3372116      0.029725462  
     54670   1.0069225     -2.852352       0             -1.3425724      0.062811832  
     54680   1.0018499     -2.8507796      0             -1.3486059      0.068098231  
     54690   1.0041107     -2.8598712      0             -1.3543076      0.050698386  
     54700   0.99963295    -2.8593367      0             -1.3604871      0.048617457  
     54710   0.99948052    -2.864212       0             -1.3655909      0.042714953  
     54720   0.98678757    -2.8502314      0             -1.3706421      0.063281498  
     54730   0.99620147    -2.8689698      0             -1.3752654      0.03291725   
     54740   0.99917041    -2.8770558      0             -1.3788997      0.026618704  
     54750   0.98714365    -2.8629802      0             -1.382857       0.062826171  
     54760   0.96383329    -2.8303853      0             -1.3852136      0.11018781   
     54770   0.98883648    -2.8699478      0             -1.3872863      0.045897976  
     54780   0.98040856    -2.8585307      0             -1.3885062      0.052994309  
     54790   0.98288749    -2.8631678      0             -1.3894263      0.04405248   
     54800   0.98225223    -2.8629684      0             -1.3901794      0.044225877  
     54810   0.98386814    -2.8651061      0             -1.3898942      0.044365798  
     54820   0.99070354    -2.8744016      0             -1.3889407      0.034986411  
     54830   0.99625674    -2.8816854      0             -1.387898       0.034902695  
     54840   0.98687065    -2.8662356      0             -1.3865217      0.067182619  
     54850   0.99576469    -2.8778058      0             -1.3847562      0.051595985  
     54860   1.0015956     -2.8849166      0             -1.3831242      0.046571346  
     54870   0.99776524    -2.8775429      0             -1.3814937      0.076315059  
     54880   0.98794436    -2.8614266      0             -1.3801028      0.12196993   
     54890   0.9913409     -2.864848       0             -1.3784315      0.12810659   
     54900   0.99608455    -2.8695727      0             -1.3760436      0.12112968   
     54910   1.0119643     -2.8907064      0             -1.3733671      0.088739497  
     54920   1.0186223     -2.8982527      0             -1.3709304      0.073911324  
     54930   1.0222189     -2.9015715      0             -1.3688566      0.06389051   
     54940   1.024801      -2.9040716      0             -1.3674849      0.051299346  
     54950   1.0074615     -2.8771761      0             -1.3665883      0.08154568   
     54960   0.99947135    -2.8638216      0             -1.3652143      0.089353629  
     54970   1.0105226     -2.8795854      0             -1.3644078      0.056679165  
     54980   1.0004234     -2.8639043      0             -1.3638695      0.076214423  
     54990   1.0103681     -2.877886       0             -1.36294        0.051838099  
     55000   1.0206835     -2.8929015      0             -1.3624886      0.029689917  
     55010   0.99658331    -2.8567261      0             -1.3624491      0.077865257  
     55020   1.0015335     -2.8637387      0             -1.3620393      0.055076988  
     55030   1.0016124     -2.8635095      0             -1.3616918      0.040531579  
     55040   1.0103754     -2.8756723      0             -1.3607153      0.017464587  
     55050   1.0007058     -2.860543       0             -1.3600847      0.04339018   
     55060   0.99263679    -2.8480019      0             -1.3596423      0.067574998  
     55070   1.0019113     -2.8610919      0             -1.3588261      0.051263361  
     55080   1.0119961     -2.8751811      0             -1.3577942      0.03520885   
     55090   1.015142      -2.8793218      0             -1.3572178      0.039083202  
     55100   1.0037927     -2.8618289      0             -1.3567421      0.079592324  
     55110   1.0004702     -2.85653        0             -1.356425       0.093176215  
     55120   1.0116715     -2.8741211      0             -1.3572209      0.069847627  
     55130   1.0117216     -2.8747209      0             -1.3577455      0.072968801  
     55140   1.0102142     -2.8731844      0             -1.3584692      0.077410249  
     55150   1.0096073     -2.8733776      0             -1.3595724      0.071484581  
     55160   1.0117707     -2.8784544      0             -1.3614054      0.057052623  
     55170   1.0109494     -2.8789151      0             -1.3630977      0.055878442  
     55180   1.0032741     -2.8700355      0             -1.3657263      0.070111457  
     55190   0.98870575    -2.8508975      0             -1.3684321      0.098859458  
     55200   1.002081      -2.8735379      0             -1.3710176      0.068380418  
     55210   0.99911162    -2.8711714      0             -1.3731034      0.072584796  
     55220   0.99991973    -2.8750937      0             -1.375814       0.061695349  
     55230   1.0071688     -2.8887736      0             -1.3786247      0.037512606  
     55240   0.98547019    -2.8594104      0             -1.3817964      0.082216774  
     55250   0.98061905    -2.8544531      0             -1.3841129      0.086412893  
     55260   0.98533821    -2.8631589      0             -1.3857428      0.06275202   
     55270   0.99885215    -2.8851056      0             -1.3874267      0.024188006  
     55280   0.99792343    -2.8853059      0             -1.3890195      0.018836116  
     55290   0.98476674    -2.8675927      0             -1.3910334      0.040566022  
     55300   0.98974414    -2.8769051      0             -1.3928828      0.028395172  
     55310   0.99138295    -2.8802518      0             -1.3937722      0.035154412  
     55320   0.98191106    -2.8670261      0             -1.3947487      0.071099263  
     55330   0.9848633     -2.8721508      0             -1.3954468      0.07875494   
     55340   0.97806976    -2.8628193      0             -1.3963015      0.10252276   
     55350   0.97244732    -2.8533556      0             -1.3952681      0.11913685   
     55360   0.98269163    -2.867447       0             -1.3939992      0.095231423  
     55370   0.98567226    -2.8697078      0             -1.3917909      0.07956104   
     55380   1.0086967     -2.9019351      0             -1.3894953      0.02337494   
     55390   1.001311      -2.8887657      0             -1.3874         0.044673137  
     55400   0.98934716    -2.8674957      0             -1.3840686      0.084118027  
     55410   1.0035598     -2.8850733      0             -1.3803358      0.065496938  
     55420   1.0105783     -2.8921532      0             -1.3768922      0.061437555  
     55430   1.0115379     -2.8899965      0             -1.3732965      0.079267695  
     55440   1.0007577     -2.8696905      0             -1.3691545      0.12208201   
     55450   1.0102314     -2.8799955      0             -1.3652546      0.11327411   
     55460   1.0083109     -2.8737528      0             -1.3618914      0.11990509   
     55470   1.0125697     -2.8766722      0             -1.3584252      0.11578483   
     55480   1.0083966     -2.8663131      0             -1.3543233      0.13291052   
     55490   1.0167953     -2.8751778      0             -1.3505949      0.12057031   
     55500   1.0139988     -2.8674346      0             -1.3470449      0.11987056   
     55510   1.0240493     -2.8794034      0             -1.3439439      0.082751914  
     55520   1.0257004     -2.8791139      0             -1.3411787      0.063385675  
     55530   1.0225846     -2.8716296      0             -1.3383663      0.064799396  
     55540   1.019393      -2.8650861      0             -1.3366083      0.075264772  
     55550   1.0056653     -2.8432761      0             -1.3353815      0.10846281   
     55560   1.0185194     -2.8620745      0             -1.3349064      0.083414562  
     55570   1.007898      -2.8449716      0             -1.3337294      0.10645041   
     55580   1.0007707     -2.8336744      0             -1.3331188      0.1151142    
     55590   1.0027473     -2.8362817      0             -1.3327624      0.098476     
     55600   1.0049483     -2.8388487      0             -1.3320292      0.081829275  
     55610   1.0003302     -2.8314557      0             -1.3315606      0.079268738  
     55620   0.9865923     -2.8110447      0             -1.3317482      0.092320789  
     55630   0.99689408    -2.8260295      0             -1.3312865      0.059178148  
     55640   0.99935086    -2.8287058      0             -1.3302791      0.044477143  
     55650   1.0060497     -2.8378211      0             -1.3293502      0.028231777  
     55653   1.0013148     -2.8303383      0             -1.3289669      0.039765068  
Loop time of 29.6269 on 1 procs for 50000 steps with 2500 atoms

Performance: 729068.132 tau/day, 1687.658 timesteps/s, 4.219 Matom-step/s
99.1% CPU use with 1 MPI tasks x no OpenMP threads

MPI task timing breakdown:
Section |  min time  |  avg time  |  max time  |%varavg| %total
---------------------------------------------------------------
Pair    | 17.114     | 17.114     | 17.114     |   0.0 | 57.77
Neigh   | 10.276     | 10.276     | 10.276     |   0.0 | 34.69
Comm    | 0.61901    | 0.61901    | 0.61901    |   0.0 |  2.09
Output  | 0.32493    | 0.32493    | 0.32493    |   0.0 |  1.10
Modify  | 1.0524     | 1.0524     | 1.0524     |   0.0 |  3.55
Other   |            | 0.24       |            |       |  0.81

Nlocal:           2500 ave        2500 max        2500 min
Histogram: 1 0 0 0 0 0 0 0 0 0
Nghost:           2800 ave        2800 max        2800 min
Histogram: 1 0 0 0 0 0 0 0 0 0
Neighs:          48034 ave       48034 max       48034 min
Histogram: 1 0 0 0 0 0 0 0 0 0

Total # of neighbors = 48034
Ave neighs/atom = 19.2136
Neighbor list builds = 6789
Dangerous builds = 0
Total wall time: 0:00:33
