LAMMPS (2 Aug 2023)
OMP_NUM_THREADS environment is not set. Defaulting to 1 thread. (src/comm.cpp:98)
  using 1 OpenMP thread(s) per MPI task
# ------------------------------- Initialization Section --------------------

include         system.in.init
units real
atom_style      full
bond_style      harmonic
angle_style     harmonic
dihedral_style  harmonic
improper_style  harmonic
#pair_style      lj/cut/coul/cut ${cutoff}  # for non-period sims
pair_style      lj/cut/coul/long   12
kspace_style    pppm 0.0001
special_bonds lj 0.0 0.0 0.5 coul 0.0 0.0 1.0 angle yes dihedral yes

# ------------------------------- Atom Definition Section -------------------

read_data       system_equilibrated_aftercooling_stable.data
Reading data file ...
  orthogonal box = (0.0941904 0.0941904 0.0941904) to (49.90581 49.90581 49.90581)
  2 by 2 by 4 MPI processor grid
  reading atoms ...
  12000 atoms
  reading velocities ...
  12000 velocities
  scanning bonds ...
  3 = max bonds/atom
  scanning angles ...
  6 = max angles/atom
  scanning dihedrals ...
  10 = max dihedrals/atom
  scanning impropers ...
  2 = max impropers/atom
  reading bonds ...
  11500 bonds
  reading angles ...
  19500 angles
  reading dihedrals ...
  20500 dihedrals
  reading impropers ...
  2500 impropers
Finding 1-2 1-3 1-4 neighbors ...
  special bond factors lj:    0        0        0.5     
  special bond factors coul:  0        0        1       
     4 = max # of 1-2 neighbors
     7 = max # of 1-3 neighbors
    14 = max # of 1-4 neighbors
  39000 = # of 1-3 neighbors before angle trim
  39000 = # of 1-3 neighbors after angle trim
  56500 = # of 1-4 neighbors before dihedral trim
  41000 = # of 1-4 neighbors after dihedral trim
    15 = max # of special neighbors
  special bonds CPU = 0.003 seconds
  read_data CPU = 0.335 seconds

# ------------------------------- Settings Section --------------------------

include         system.in.settings
#     atom_id      mass
mass 1            15.999400000
mass 2           15.999400000
mass 3           15.999400000
mass 4           15.999400000
mass 5           15.999400000
mass 6            14.006700000
mass 7           14.006700000
mass 8           14.006700000
mass 9           14.006700000
mass 10           14.006700000
mass 11           14.006700000
mass 12            12.011000000
mass 13          12.011000000
mass 14          13.019000000
mass 15          14.027000000
mass 16          15.035000000
mass 17          16.043000000
mass 18         14.027000000
mass 19          12.011000000
mass 20            1.008000000
mass 21             1.008000000
mass 22           1.000000000
mass 23            32.060000000
mass 24         63.546000000
mass 25         63.546000000
mass 26           55.847000000
mass 27         65.370000000
mass 28         24.305000000
mass 29         40.080000000
mass 30           39.948000000
mass 31            18.998400000
mass 32           35.453000000
mass 33           79.904000000
mass 34         12.011000000
mass 35         15.999400000
mass 36          22.989800000
mass 37          35.453000000
mass 38         12.011000000
mass 39        35.453000000
mass 40          1.008000000
mass 41        32.060000000
mass 42        12.011000000
mass 43        15.999400000
mass 44         12.011000000
mass 45        35.453000000
mass 46         18.998400000
mass 47         12.011000000
mass 48        13.019000000
mass 49         15.999400000
mass 50        12.011000000
mass 51        15.999400000
mass 52        14.006700000
mass 53         15.035000000
mass 54            126.904470000
mass 55        35.453000000
mass 56            10.811000000
mass 57           78.960000000
mass 58          1.008000000
mass 59        35.453000000
mass 60        79.904000000
mass 61        15.999400000
mass 62         14.006700000
mass 63         12.011000000
mass 64         12.011000000
mass 65         14.006700000
mass 66         14.006700000
mass 67         15.999400000
mass 68           28.080000000
mass 69            30.973800000

#           atom_i       atom_j       epsilon                  sigma
pair_coeff 1      1      3.057142739336137782E-01 2.760065475311210825E+00
pair_coeff 1      2     3.550276087952778381E-01 2.692123523613648928E+00
pair_coeff 2     2     4.122954462841457168E-01 2.625854035428913935E+00
pair_coeff 1      3     2.204919358198741963E-01 2.914561468303898728E+00
pair_coeff 2     3     1.353372555548385814E-01 3.161567388722811067E+00
pair_coeff 3     3     2.030610329881481768E-01 2.954841833242532800E+00
pair_coeff 1      4     2.779220672123761116E-01 2.804259278747785356E+00
pair_coeff 2     4     3.227523716320707670E-01 2.735229449503375765E+00
pair_coeff 3     4     2.030610329881481768E-01 2.954841833242532800E+00
pair_coeff 4     4     2.526564247385237327E-01 2.849160707521389835E+00
pair_coeff 1      5     1.928839685607480758E-01 3.016736863519489109E+00
pair_coeff 2     5     1.183915722290306144E-01 3.272402037762298210E+00
pair_coeff 3     5     1.776356026680076250E-01 3.058429331874637391E+00
pair_coeff 4     5     1.776356026680076250E-01 3.058429331874637391E+00
pair_coeff 5     5     1.553937103090970162E-01 3.165648283720967182E+00
pair_coeff 1      6      1.694765154967038112E-01 3.064144913095461664E+00
pair_coeff 2     6      9.205677104655286824E-02 3.392227199027124662E+00
pair_coeff 3     6      1.381226695164660401E-01 3.170419479686534814E+00
pair_coeff 4     6      1.381226695164660401E-01 3.170419479686534814E+00
pair_coeff 5     6      1.208282223360083590E-01 3.281564455306036798E+00
pair_coeff 6      6      1.529146624006174071E-01 3.136473222385702364E+00
pair_coeff 1      7     1.295153862773237297E-01 3.204601223054668324E+00
pair_coeff 2     7     7.949613606375653674E-02 3.476187697824344891E+00
pair_coeff 3     7     1.192765986091082336E-01 3.248890049401691016E+00
pair_coeff 4     7     1.192765986091082336E-01 3.248890049401691016E+00
pair_coeff 5     7     1.043418826661619003E-01 3.362785957386363656E+00
pair_coeff 6      7     8.113226830524199185E-02 3.485920696025768706E+00
pair_coeff 7     7     7.006222102981565780E-02 3.572200188298519929E+00
pair_coeff 1      8     9.498357859321329699E-02 3.374577969603924643E+00
pair_coeff 2     8     3.498417334104661491E-02 3.985801065571819457E+00
pair_coeff 3     8     8.747468933197311003E-02 3.421215940224123120E+00
pair_coeff 4     8     8.747468933197311003E-02 3.421215940224123120E+00
pair_coeff 5     8     7.652191525386708992E-02 3.541153054130216749E+00
pair_coeff 6      8     1.529146624006174071E-01 3.136473222385702364E+00
pair_coeff 7     8     5.138200694820247577E-02 3.761674922833770918E+00
pair_coeff 8     8     1.529146624006174071E-01 3.136473222385702364E+00
pair_coeff 1      9     1.582887664986303011E-01 3.099220950402574282E+00
pair_coeff 2     9     9.715714619416199183E-02 3.361876561464794300E+00
pair_coeff 3     9     1.457753106303604218E-01 3.142053380689358466E+00
pair_coeff 4     9     1.457753106303604218E-01 3.142053380689358466E+00
pair_coeff 5     9     1.275226702872701012E-01 3.252203929734818200E+00
pair_coeff 6      9     9.915676463161025855E-02 3.371289499249087385E+00
pair_coeff 7     9     8.562737496854166963E-02 3.454731772227725983E+00
pair_coeff 8     9     6.279712962164887835E-02 3.637975809775669589E+00
pair_coeff 9     9     1.046505125905587974E-01 3.341126193637144581E+00
pair_coeff 1      10     1.356655582513865699E-01 3.179918240687398701E+00
pair_coeff 2     10     4.996808371058240883E-02 3.755883439744826191E+00
pair_coeff 3     10     1.249405711687586185E-01 3.223865938686866883E+00
pair_coeff 4     10     1.249405711687586185E-01 3.223865938686866883E+00
pair_coeff 5     10     1.092966648039405131E-01 3.336884579737899870E+00
pair_coeff 6      10     1.529146624006174071E-01 3.136473222385702364E+00
pair_coeff 7     10     7.338919800609181032E-02 3.544685827501989461E+00
pair_coeff 8     10     1.529146624006174071E-01 3.136473222385702364E+00
pair_coeff 9     10     8.969347936648916497E-02 3.428122195097171421E+00
pair_coeff 10     10     1.529146624006174071E-01 3.136473222385702364E+00
pair_coeff 1      11     1.468798483487794293E-01 3.138102939733744545E+00
pair_coeff 2     11     5.409850998504587422E-02 3.706494309430008460E+00
pair_coeff 3     11     1.352683199952084137E-01 3.181472734127216206E+00
pair_coeff 4     11     1.352683199952084137E-01 3.181472734127216206E+00
pair_coeff 5     11     1.183312681445888304E-01 3.293005202223091565E+00
pair_coeff 6      11     1.529146624006174071E-01 3.136473222385702364E+00
pair_coeff 7     11     7.945564380901472268E-02 3.498073904350435193E+00
pair_coeff 8     11     1.529146624006174071E-01 3.136473222385702364E+00
pair_coeff 9     11     9.710765810444493829E-02 3.383043060841536942E+00
pair_coeff 10     11     1.529146624006174071E-01 3.136473222385702364E+00
pair_coeff 11     11     1.529146624006174071E-01 3.136473222385702364E+00
pair_coeff 1      12      1.423703976828447626E-01 3.143928959384971744E+00
pair_coeff 2     12      1.653354984123153737E-01 3.066537799135407028E+00
pair_coeff 3     12      1.294276342571315797E-01 3.194269134171567437E+00
pair_coeff 4     12      1.294276342571315797E-01 3.194269134171567437E+00
pair_coeff 5     12      1.015029251390483361E-01 3.367009660356621747E+00
pair_coeff 6      12      1.006900148654086141E-01 3.351458328501519368E+00
pair_coeff 7     12      1.006900148654086141E-01 3.351458328501519368E+00
pair_coeff 8     12      1.006900148654086141E-01 3.351458328501519368E+00
pair_coeff 9     12      1.006900148654086141E-01 3.351458328501519368E+00
pair_coeff 10     12      1.006900148654086141E-01 3.351458328501519368E+00
pair_coeff 11     12      1.006900148654086141E-01 3.351458328501519368E+00
pair_coeff 12      12      6.630154972997068241E-02 3.581179283634555510E+00
pair_coeff 1      13    2.260833879260638890E-02 4.280821861878790990E+00
pair_coeff 2     13    2.625518382604388745E-02 4.175444871815595427E+00
pair_coeff 3     13    2.055303526600580841E-02 4.349365815492619802E+00
pair_coeff 4     13    2.055303526600580841E-02 4.349365815492619802E+00
pair_coeff 5     13    1.611860721985387823E-02 4.584571963747981371E+00
pair_coeff 6      13    1.598951752723829639E-02 4.563397031920107594E+00
pair_coeff 7     13    1.598951752723829639E-02 4.563397031920107594E+00
pair_coeff 8     13    1.598951752723829639E-02 4.563397031920107594E+00
pair_coeff 9     13    1.598951752723829639E-02 4.563397031920107594E+00
pair_coeff 10     13    1.598951752723829639E-02 4.563397031920107594E+00
pair_coeff 11     13    1.598951752723829639E-02 4.563397031920107594E+00
pair_coeff 12      13    1.052864867392752299E-02 4.876188605638604123E+00
pair_coeff 13    13    1.671943466637953492E-03 6.639493148644640463E+00
pair_coeff 1      14    8.326657659937299061E-02 3.721998163273249283E+00
pair_coeff 2     14    9.669791731433396986E-02 3.630377213810442427E+00
pair_coeff 3     14    7.569688781761180207E-02 3.781594305716371451E+00
pair_coeff 4     14    7.569688781761180207E-02 3.781594305716371451E+00
pair_coeff 5     14    5.936487660854102705E-02 3.986096356968000354E+00
pair_coeff 6      14    5.888943890049144064E-02 3.967685626525647269E+00
pair_coeff 7     14    5.888943890049144064E-02 3.967685626525647269E+00
pair_coeff 8     14    5.888943890049144064E-02 3.967685626525647269E+00
pair_coeff 9     14    5.888943890049144064E-02 3.967685626525647269E+00
pair_coeff 10     14    5.888943890049144064E-02 3.967685626525647269E+00
pair_coeff 11     14    5.888943890049144064E-02 3.967685626525647269E+00
pair_coeff 12      14    3.877704325548127218E-02 4.239645007324696735E+00
pair_coeff 13    14    6.157772581688245907E-03 5.772765628111153013E+00
pair_coeff 14    14    2.267909407489697785E-02 5.019181773522026546E+00
pair_coeff 1      15    1.731972553779473067E-01 3.351793382524915543E+00
pair_coeff 2     15    2.011348918568659772E-01 3.269285418082499728E+00
pair_coeff 3     15    1.574520503435884455E-01 3.405461854969619839E+00
pair_coeff 4     15    1.574520503435884455E-01 3.405461854969619839E+00
pair_coeff 5     15    1.234809225305322361E-01 3.589623316644059425E+00
pair_coeff 6      15    1.224919962470180784E-01 3.573043790873992709E+00
pair_coeff 7     15    1.224919962470180784E-01 3.573043790873992709E+00
pair_coeff 8     15    1.224919962470180784E-01 3.573043790873992709E+00
pair_coeff 9     15    1.224919962470180784E-01 3.573043790873992709E+00
pair_coeff 10     15    1.224919962470180784E-01 3.573043790873992709E+00
pair_coeff 11     15    1.224919962470180784E-01 3.573043790873992709E+00
pair_coeff 12      15    8.065754277175206377E-02 3.817953007077415251E+00
pair_coeff 13    15    1.280837226587758920E-02 5.198583336794016851E+00
pair_coeff 14    15    4.717327178141728083E-02 4.519953937695086132E+00
pair_coeff 15    15    9.812197803026967424E-02 4.070381293353582564E+00
pair_coeff 1      16    2.517150719017874350E-01 3.216286733597559344E+00
pair_coeff 2     16    2.923180488930291476E-01 3.137114409660223480E+00
pair_coeff 3     16    2.288318835470794788E-01 3.267785491497223305E+00
pair_coeff 4     16    2.288318835470794788E-01 3.267785491497223305E+00
pair_coeff 5     16    1.794601723072659361E-01 3.444501654585188533E+00
pair_coeff 6      16    1.780229229119614787E-01 3.428592407594721170E+00
pair_coeff 7     16    1.780229229119614787E-01 3.428592407594721170E+00
pair_coeff 8     16    1.780229229119614787E-01 3.428592407594721170E+00
pair_coeff 9     16    1.780229229119614787E-01 3.428592407594721170E+00
pair_coeff 10     16    1.780229229119614787E-01 3.428592407594721170E+00
pair_coeff 11     16    1.780229229119614787E-01 3.428592407594721170E+00
pair_coeff 12      16    1.172230999498745652E-01 3.663600408719620116E+00
pair_coeff 13    16    1.861496210673063006E-02 4.988414472922134912E+00
pair_coeff 14    16    6.855895881485152277E-02 4.337220773235620719E+00
pair_coeff 15    16    1.426049200441300291E-01 3.905823498176049124E+00
pair_coeff 16    16    2.072539060975635561E-01 3.747918462531858008E+00
pair_coeff 1      17    3.038575184606040480E-01 3.199953592715625295E+00
pair_coeff 2     17    3.528713488103634721E-01 3.121183326439165739E+00
pair_coeff 3     17    2.762341076914582305E-01 3.251190826523163935E+00
pair_coeff 4     17    2.762341076914582305E-01 3.251190826523163935E+00
pair_coeff 5     17    2.166351113098009262E-01 3.427009578955020341E+00
pair_coeff 6      17    2.149001375898457467E-01 3.411181123260212722E+00
pair_coeff 7     17    2.149001375898457467E-01 3.411181123260212722E+00
pair_coeff 8     17    2.149001375898457467E-01 3.411181123260212722E+00
pair_coeff 9     17    2.149001375898457467E-01 3.411181123260212722E+00
pair_coeff 10     17    2.149001375898457467E-01 3.411181123260212722E+00
pair_coeff 11     17    2.149001375898457467E-01 3.411181123260212722E+00
pair_coeff 12      17    1.415057111515590771E-01 3.644995692608442361E+00
pair_coeff 13    17    2.247102705950117241E-02 4.963082006288297876E+00
pair_coeff 14    17    8.276085709262456791E-02 4.315195237643504100E+00
pair_coeff 15    17    1.721453419435647891E-01 3.885988710192354478E+00
pair_coeff 16    17    2.501862805523388245E-01 3.728885557404626905E+00
pair_coeff 17    17    3.020120399909287934E-01 3.709949306321822071E+00
pair_coeff 1      18   1.871351497334000635E-01 3.303836737441132154E+00
pair_coeff 2     18   2.173210425425619319E-01 3.222509276900889397E+00
pair_coeff 3     18   1.701228633940000401E-01 3.356737334425898833E+00
pair_coeff 4     18   1.701228633940000401E-01 3.356737334425898833E+00
pair_coeff 5     18   1.334179394271841901E-01 3.538263858666045536E+00
pair_coeff 6      18   1.323494301847202848E-01 3.521921548721142159E+00
pair_coeff 7     18   1.323494301847202848E-01 3.521921548721142159E+00
pair_coeff 8     18   1.323494301847202848E-01 3.521921548721142159E+00
pair_coeff 9     18   1.323494301847202848E-01 3.521921548721142159E+00
pair_coeff 10     18   1.323494301847202848E-01 3.521921548721142159E+00
pair_coeff 11     18   1.323494301847202848E-01 3.521921548721142159E+00
pair_coeff 12      18   8.714838644978782634E-02 3.763326663382849269E+00
pair_coeff 13    18   1.383911457826323375E-02 5.124203269895830637E+00
pair_coeff 14    18   5.096949867344095775E-02 4.455283535302380749E+00
pair_coeff 15    18   1.060182565293115581E-01 4.012143267090165999E+00
pair_coeff 16    18   1.540809235512614617E-01 3.849939924851243589E+00
pair_coeff 17    18   1.859985845053877540E-01 3.830388928193292131E+00
pair_coeff 18   18   1.145499809843573136E-01 3.954738496352121491E+00
pair_coeff 1      19    1.916455257379301724E-01 3.213399033460031529E+00
pair_coeff 2     19    2.225589661339335279E-01 3.134297793337560201E+00
pair_coeff 3     19    1.742232052163001366E-01 3.264851553886924496E+00
pair_coeff 4     19    1.742232052163001366E-01 3.264851553886924496E+00
pair_coeff 5     19    1.366336104191038237E-01 3.441409054725308003E+00
pair_coeff 6      19    1.355393477120732659E-01 3.425514091640016634E+00
pair_coeff 7     19    1.355393477120732659E-01 3.425514091640016634E+00
pair_coeff 8     19    1.355393477120732659E-01 3.425514091640016634E+00
pair_coeff 9     19    1.355393477120732659E-01 3.425514091640016634E+00
pair_coeff 10     19    1.355393477120732659E-01 3.425514091640016634E+00
pair_coeff 11     19    1.355393477120732659E-01 3.425514091640016634E+00
pair_coeff 12      19    8.924885764206048899E-02 3.660311093966183371E+00
pair_coeff 13    19    1.417266821800791839E-02 4.983935691534572499E+00
pair_coeff 14    19    5.219797768503835894E-02 4.333326657424202644E+00
pair_coeff 15    19    1.085735338300921060E-01 3.902316706653073286E+00
pair_coeff 16    19    1.577946187139902257E-01 3.744553443938634096E+00
pair_coeff 17    19    1.904815667437584348E-01 3.725537627251366946E+00
pair_coeff 18   19    1.173108919424925706E-01 3.846483307649072980E+00
pair_coeff 19    19    1.201383470349284138E-01 3.741191446582464053E+00
pair_coeff 1      20     9.300420140216696108E-02 2.559445618447809156E+00
pair_coeff 2     20     1.080062726770026210E-01 2.496442138227286112E+00
pair_coeff 3     20     8.454927400196994569E-02 2.600427123263571172E+00
pair_coeff 4     20     8.454927400196994569E-02 2.600427123263571172E+00
pair_coeff 5     20     6.630731279946860957E-02 2.741053705029336207E+00
pair_coeff 6      20     6.577627494299018163E-02 2.728393499060382865E+00
pair_coeff 7     20     6.577627494299018163E-02 2.728393499060382865E+00
pair_coeff 8     20     6.577627494299018163E-02 2.728393499060382865E+00
pair_coeff 9     20     6.577627494299018163E-02 2.728393499060382865E+00
pair_coeff 10     20     6.577627494299018163E-02 2.728393499060382865E+00
pair_coeff 11     20     6.577627494299018163E-02 2.728393499060382865E+00
pair_coeff 12      20     4.331183156556572822E-02 2.915407359639444529E+00
pair_coeff 13    20     6.877894405717501110E-03 3.969663348839890027E+00
pair_coeff 14    20     2.533130481764387168E-02 3.451458661424102736E+00
pair_coeff 15    20     5.268995854924014149E-02 3.108162818448523712E+00
pair_coeff 16    20     7.657659860592054557E-02 2.982505691119483604E+00
pair_coeff 17    20     9.243934043658488808E-02 2.967359751198966222E+00
pair_coeff 18   20     5.693013587912872792E-02 3.063691980262590153E+00
pair_coeff 19    20     5.830227959007599353E-02 2.979827888172235539E+00
pair_coeff 20     20     2.829367882355780447E-02 2.373408142809749322E+00
pair_coeff 1      21      0.000000000000000000E+00 0.000000000000000000E+00
pair_coeff 2     21      0.000000000000000000E+00 0.000000000000000000E+00
pair_coeff 3     21      0.000000000000000000E+00 0.000000000000000000E+00
pair_coeff 4     21      0.000000000000000000E+00 0.000000000000000000E+00
pair_coeff 5     21      0.000000000000000000E+00 0.000000000000000000E+00
pair_coeff 6      21      0.000000000000000000E+00 0.000000000000000000E+00
pair_coeff 7     21      0.000000000000000000E+00 0.000000000000000000E+00
pair_coeff 8     21      0.000000000000000000E+00 0.000000000000000000E+00
pair_coeff 9     21      0.000000000000000000E+00 0.000000000000000000E+00
pair_coeff 10     21      0.000000000000000000E+00 0.000000000000000000E+00
pair_coeff 11     21      0.000000000000000000E+00 0.000000000000000000E+00
pair_coeff 12      21      0.000000000000000000E+00 0.000000000000000000E+00
pair_coeff 13    21      0.000000000000000000E+00 0.000000000000000000E+00
pair_coeff 14    21      0.000000000000000000E+00 0.000000000000000000E+00
pair_coeff 15    21      0.000000000000000000E+00 0.000000000000000000E+00
pair_coeff 16    21      0.000000000000000000E+00 0.000000000000000000E+00
pair_coeff 17    21      0.000000000000000000E+00 0.000000000000000000E+00
pair_coeff 18   21      0.000000000000000000E+00 0.000000000000000000E+00
pair_coeff 19    21      0.000000000000000000E+00 0.000000000000000000E+00
pair_coeff 20     21      0.000000000000000000E+00 0.000000000000000000E+00
pair_coeff 21      21      0.000000000000000000E+00 0.000000000000000000E+00
pair_coeff 1      22    0.000000000000000000E+00 0.000000000000000000E+00
pair_coeff 2     22    0.000000000000000000E+00 0.000000000000000000E+00
pair_coeff 3     22    0.000000000000000000E+00 0.000000000000000000E+00
pair_coeff 4     22    0.000000000000000000E+00 0.000000000000000000E+00
pair_coeff 5     22    0.000000000000000000E+00 0.000000000000000000E+00
pair_coeff 6      22    0.000000000000000000E+00 0.000000000000000000E+00
pair_coeff 7     22    0.000000000000000000E+00 0.000000000000000000E+00
pair_coeff 8     22    0.000000000000000000E+00 0.000000000000000000E+00
pair_coeff 9     22    0.000000000000000000E+00 0.000000000000000000E+00
pair_coeff 10     22    0.000000000000000000E+00 0.000000000000000000E+00
pair_coeff 11     22    0.000000000000000000E+00 0.000000000000000000E+00
pair_coeff 12      22    0.000000000000000000E+00 0.000000000000000000E+00
pair_coeff 13    22    0.000000000000000000E+00 0.000000000000000000E+00
pair_coeff 14    22    0.000000000000000000E+00 0.000000000000000000E+00
pair_coeff 15    22    0.000000000000000000E+00 0.000000000000000000E+00
pair_coeff 16    22    0.000000000000000000E+00 0.000000000000000000E+00
pair_coeff 17    22    0.000000000000000000E+00 0.000000000000000000E+00
pair_coeff 18   22    0.000000000000000000E+00 0.000000000000000000E+00
pair_coeff 19    22    0.000000000000000000E+00 0.000000000000000000E+00
pair_coeff 20     22    0.000000000000000000E+00 0.000000000000000000E+00
pair_coeff 21      22    0.000000000000000000E+00 0.000000000000000000E+00
pair_coeff 22    22    0.000000000000000000E+00 0.000000000000000000E+00
pair_coeff 1      23      3.731714874568097806E-01 3.021498329079459921E+00
pair_coeff 2     23      4.333660288663451210E-01 2.947120929208018492E+00
pair_coeff 3     23      3.392468067789179420E-01 3.069878160802191225E+00
pair_coeff 4     23      3.392468067789179420E-01 3.069878160802191225E+00
pair_coeff 5     23      2.660524812168876263E-01 3.235891839220214727E+00
pair_coeff 6      23      2.639217367579247409E-01 3.220946106087509531E+00
pair_coeff 7     23      2.639217367579247409E-01 3.220946106087509531E+00
pair_coeff 8     23      2.639217367579247409E-01 3.220946106087509531E+00
pair_coeff 9     23      2.639217367579247409E-01 3.220946106087509531E+00
pair_coeff 10     23      2.639217367579247409E-01 3.220946106087509531E+00
pair_coeff 11     23      2.639217367579247409E-01 3.220946106087509531E+00
pair_coeff 12      23      1.737850588051431666E-01 3.441721286142719993E+00
pair_coeff 13    23      2.759696924716207450E-02 4.686300458613273712E+00
pair_coeff 14    23      1.016397168676915763E-01 4.074545090238809841E+00
pair_coeff 15    23      2.114139996840987690E-01 3.669274586167817986E+00
pair_coeff 16    23      3.072571214561132247E-01 3.520932774360979955E+00
pair_coeff 17    23      3.709050306349177539E-01 3.503052561617904459E+00
pair_coeff 18   23      2.284273523866607036E-01 3.616775497184223198E+00
pair_coeff 19    23      2.339329629063890137E-01 3.517771551839822930E+00
pair_coeff 20     23      1.135259918695059600E-01 2.801875799210098883E+00
pair_coeff 21      23      0.000000000000000000E+00 0.000000000000000000E+00
pair_coeff 22    23      0.000000000000000000E+00 0.000000000000000000E+00
pair_coeff 23      23      4.555134350088204109E-01 3.307694050845144673E+00
pair_coeff 1      24   2.223093289799977224E-01 2.528643669394098126E+00
pair_coeff 2     24   8.188055467646591923E-02 2.986646248124879222E+00
pair_coeff 3     24   2.047347528503646874E-01 2.563590501331129090E+00
pair_coeff 4     24   2.047347528503646874E-01 2.563590501331129090E+00
pair_coeff 5     24   1.790997547608397245E-01 2.653461953861128819E+00
pair_coeff 6      24   5.583840364210079787E-01 2.182297559899140094E+00
pair_coeff 7     24   5.583840364210079787E-01 2.182297559899140094E+00
pair_coeff 8     24   5.583840364210079787E-01 2.182297559899140094E+00
pair_coeff 9     24   1.469768559452463708E-01 2.726013321860754957E+00
pair_coeff 10     24   5.583840364210079787E-01 2.182297559899140094E+00
pair_coeff 11     24   5.583840364210079787E-01 2.182297559899140094E+00
pair_coeff 12      24   3.676802214070164498E-01 2.331880049283297840E+00
pair_coeff 13    24   5.838741162631456982E-02 3.175123618634094314E+00
pair_coeff 14    24   2.150410044373349261E-01 2.760639115110234521E+00
pair_coeff 15    24   4.472924585510560935E-01 2.486054939218036886E+00
pair_coeff 16    24   6.500695009260647472E-01 2.385548453460561547E+00
pair_coeff 17    24   7.847305442853571567E-01 2.373434017715752464E+00
pair_coeff 18   24   4.832879194471943474E-01 2.450485069368524726E+00
pair_coeff 19    24   4.949362401301840020E-01 2.383406620605556636E+00
pair_coeff 20     24   2.401890134458197767E-01 1.898363561004745348E+00
pair_coeff 21      24   0.000000000000000000E+00 0.000000000000000000E+00
pair_coeff 22    24   0.000000000000000000E+00 0.000000000000000000E+00
pair_coeff 23      24   9.637380899683938296E-01 2.241072162744267793E+00
pair_coeff 24   24   2.038998270244088307E+00 1.518400541713947227E+00
pair_coeff 1      25   1.222674138853568487E-01 2.793586526663335956E+00
pair_coeff 2     25   4.503330433195999044E-02 3.299577089353393333E+00
pair_coeff 3     25   1.126016118096603430E-01 2.832194971194489597E+00
pair_coeff 4     25   1.126016118096603430E-01 2.832194971194489597E+00
pair_coeff 5     25   9.850267617010251275E-02 2.931482855034457380E+00
pair_coeff 6      25   5.583840364210079787E-01 2.182297559899140094E+00
pair_coeff 7     25   5.583840364210079787E-01 2.182297559899140094E+00
pair_coeff 8     25   5.583840364210079787E-01 2.182297559899140094E+00
pair_coeff 9     25   8.083547442600935717E-02 3.011635913604119530E+00
pair_coeff 10     25   5.583840364210079787E-01 2.182297559899140094E+00
pair_coeff 11     25   5.583840364210079787E-01 2.182297559899140094E+00
pair_coeff 12      25   3.676802214070164498E-01 2.331880049283297840E+00
pair_coeff 13    25   5.838741162631456982E-02 3.175123618634094314E+00
pair_coeff 14    25   2.150410044373349261E-01 2.760639115110234521E+00
pair_coeff 15    25   4.472924585510560935E-01 2.486054939218036886E+00
pair_coeff 16    25   6.500695009260647472E-01 2.385548453460561547E+00
pair_coeff 17    25   7.847305442853571567E-01 2.373434017715752464E+00
pair_coeff 18   25   4.832879194471943474E-01 2.450485069368524726E+00
pair_coeff 19    25   4.949362401301840020E-01 2.383406620605556636E+00
pair_coeff 20     25   2.401890134458197767E-01 1.898363561004745348E+00
pair_coeff 21      25   0.000000000000000000E+00 0.000000000000000000E+00
pair_coeff 22    25   0.000000000000000000E+00 0.000000000000000000E+00
pair_coeff 23      25   9.637380899683938296E-01 2.241072162744267793E+00
pair_coeff 24   25   2.038998270244088307E+00 1.518400541713947227E+00
pair_coeff 25   25   2.038998270244088307E+00 1.518400541713947227E+00
pair_coeff 1      26     0.000000000000000000E+00 0.000000000000000000E+00
pair_coeff 2     26     0.000000000000000000E+00 0.000000000000000000E+00
pair_coeff 3     26     0.000000000000000000E+00 0.000000000000000000E+00
pair_coeff 4     26     0.000000000000000000E+00 0.000000000000000000E+00
pair_coeff 5     26     0.000000000000000000E+00 0.000000000000000000E+00
pair_coeff 6      26     0.000000000000000000E+00 0.000000000000000000E+00
pair_coeff 7     26     0.000000000000000000E+00 0.000000000000000000E+00
pair_coeff 8     26     0.000000000000000000E+00 0.000000000000000000E+00
pair_coeff 9     26     0.000000000000000000E+00 0.000000000000000000E+00
pair_coeff 10     26     0.000000000000000000E+00 0.000000000000000000E+00
pair_coeff 11     26     0.000000000000000000E+00 0.000000000000000000E+00
pair_coeff 12      26     0.000000000000000000E+00 0.000000000000000000E+00
pair_coeff 13    26     0.000000000000000000E+00 0.000000000000000000E+00
pair_coeff 14    26     0.000000000000000000E+00 0.000000000000000000E+00
pair_coeff 15    26     0.000000000000000000E+00 0.000000000000000000E+00
pair_coeff 16    26     0.000000000000000000E+00 0.000000000000000000E+00
pair_coeff 17    26     0.000000000000000000E+00 0.000000000000000000E+00
pair_coeff 18   26     0.000000000000000000E+00 0.000000000000000000E+00
pair_coeff 19    26     0.000000000000000000E+00 0.000000000000000000E+00
pair_coeff 20     26     0.000000000000000000E+00 0.000000000000000000E+00
pair_coeff 21      26     0.000000000000000000E+00 0.000000000000000000E+00
pair_coeff 22    26     0.000000000000000000E+00 0.000000000000000000E+00
pair_coeff 23      26     0.000000000000000000E+00 0.000000000000000000E+00
pair_coeff 24   26     0.000000000000000000E+00 0.000000000000000000E+00
pair_coeff 25   26     0.000000000000000000E+00 0.000000000000000000E+00
pair_coeff 26     26     0.000000000000000000E+00 0.000000000000000000E+00
pair_coeff 1      27   5.148167869545027253E-01 2.198391984374735042E+00
pair_coeff 2     27   1.896163524310913173E-01 2.596577466216851260E+00
pair_coeff 3     27   4.741181493550025716E-01 2.228774610499382636E+00
pair_coeff 4     27   4.741181493550025716E-01 2.228774610499382636E+00
pair_coeff 5     27   4.147534460805777923E-01 2.306908466707524141E+00
pair_coeff 6      27   4.114317946416216065E-01 2.296253463382908144E+00
pair_coeff 7     27   4.114317946416216065E-01 2.296253463382908144E+00
pair_coeff 8     27   4.114317946416216065E-01 2.296253463382908144E+00
pair_coeff 9     27   3.403642711782671748E-01 2.369984315549452436E+00
pair_coeff 10     27   4.114317946416216065E-01 2.296253463382908144E+00
pair_coeff 11     27   4.114317946416216065E-01 2.296253463382908144E+00
pair_coeff 12      27   2.709162932331031781E-01 2.453646898458591963E+00
pair_coeff 13    27   4.302135444964862165E-02 3.340923226938115054E+00
pair_coeff 14    27   1.584477717956855047E-01 2.904795040652100369E+00
pair_coeff 15    27   3.295766478763905716E-01 2.615872541507785698E+00
pair_coeff 16    27   4.789880153488779158E-01 2.510117776321816319E+00
pair_coeff 17    27   5.782097536577677221E-01 2.497370745143705939E+00
pair_coeff 18   27   3.560990341007065352E-01 2.578445272956105150E+00
pair_coeff 19    27   3.646818179386565606E-01 2.507864100562072096E+00
pair_coeff 20     27   1.769774750163259913E-01 1.997492909224773072E+00
pair_coeff 21      27   0.000000000000000000E+00 0.000000000000000000E+00
pair_coeff 22    27   0.000000000000000000E+00 0.000000000000000000E+00
pair_coeff 23      27   7.101071414248384395E-01 2.358097177009347067E+00
pair_coeff 24   27   1.502386642309327724E+00 1.597688860942628741E+00
pair_coeff 25   27   1.502386642309327724E+00 1.597688860942628741E+00
pair_coeff 26     27   0.000000000000000000E+00 0.000000000000000000E+00
pair_coeff 27   27   1.106997321149905122E+00 1.681117482676084629E+00
pair_coeff 1      28   1.337556733810085774E-01 2.357481108494590138E+00
pair_coeff 2     28   4.926463850082780926E-02 2.784481733402069281E+00
pair_coeff 3     28   1.231816714918823885E-01 2.390062407746226469E+00
pair_coeff 4     28   1.231816714918823885E-01 2.390062407746226469E+00
pair_coeff 5     28   1.077579983274792180E-01 2.473850508891853206E+00
pair_coeff 6      28   1.068949928152020112E-01 2.462424444192170547E+00
pair_coeff 7     28   1.068949928152020112E-01 2.462424444192170547E+00
pair_coeff 8     28   1.068949928152020112E-01 2.462424444192170547E+00
pair_coeff 9     28   8.843078438758973647E-02 2.541490912925349122E+00
pair_coeff 10     28   1.068949928152020112E-01 2.462424444192170547E+00
pair_coeff 11     28   1.068949928152020112E-01 2.462424444192170547E+00
pair_coeff 12      28   7.038735361689542336E-02 2.631207833337182223E+00
pair_coeff 13    28   1.117747202498341370E-02 3.582692917558796708E+00
pair_coeff 14    28   4.116666151782900213E-02 3.115003821456256539E+00
pair_coeff 15    28   8.562802842568927042E-02 2.805173118654866293E+00
pair_coeff 16    28   1.244469220077783211E-01 2.691765290191502125E+00
pair_coeff 17    28   1.502259384614757498E-01 2.678095805674920893E+00
pair_coeff 18   28   9.251886749504166507E-02 2.765037383453741171E+00
pair_coeff 19    28   9.474877930215237776E-02 2.689348524634663118E+00
pair_coeff 20     28   4.598090416614816073E-02 2.142043744391038285E+00
pair_coeff 21      28   0.000000000000000000E+00 0.000000000000000000E+00
pair_coeff 22    28   0.000000000000000000E+00 0.000000000000000000E+00
pair_coeff 23      28   1.844944867392919463E-01 2.528743548150760745E+00
pair_coeff 24   28   3.903383535907812840E-01 1.713307423651182493E+00
pair_coeff 25   28   3.903383535907812840E-01 1.713307423651182493E+00
pair_coeff 26     28   0.000000000000000000E+00 0.000000000000000000E+00
pair_coeff 27   28   2.876113908353647441E-01 1.802773452022052636E+00
pair_coeff 28   28   7.472494337414144205E-02 1.933233193281657103E+00
pair_coeff 1      29   1.703146428752259911E-01 2.843803441534021204E+00
pair_coeff 2     29   6.272996950749848422E-02 3.358889582531555007E+00
pair_coeff 3     29   1.568504861035088516E-01 2.883105903219756350E+00
pair_coeff 4     29   1.568504861035088516E-01 2.883105903219756350E+00
pair_coeff 5     29   1.372111144012202466E-01 2.984178564858046556E+00
pair_coeff 6      29   1.361122266164445094E-01 2.970395429120896935E+00
pair_coeff 7     29   1.361122266164445094E-01 2.970395429120896935E+00
pair_coeff 8     29   1.361122266164445094E-01 2.970395429120896935E+00
pair_coeff 9     29   1.126012608021971506E-01 3.065772437692955599E+00
pair_coeff 10     29   1.361122266164445094E-01 2.970395429120896935E+00
pair_coeff 11     29   1.361122266164445094E-01 2.970395429120896935E+00
pair_coeff 12      29   8.962608232733035307E-02 3.173996968575379718E+00
pair_coeff 13    29   1.423257128510838597E-02 4.321762924080988277E+00
pair_coeff 14    29   5.241860085293292143E-02 3.757594729361648955E+00
pair_coeff 15    29   1.090324373747397629E-01 3.383849372190097071E+00
pair_coeff 16    29   1.584615631091823018E-01 3.247046760402909182E+00
pair_coeff 17    29   1.912866677944946026E-01 3.230557412101377146E+00
pair_coeff 18   29   1.178067253398141917E-01 3.335434077797200025E+00
pair_coeff 19    29   1.206461311270324160E-01 3.244131442785662678E+00
pair_coeff 20     29   5.854870357409030363E-02 2.583923727009426852E+00
pair_coeff 21      29   0.000000000000000000E+00 0.000000000000000000E+00
pair_coeff 22    29   0.000000000000000000E+00 0.000000000000000000E+00
pair_coeff 23      29   2.349217182881164212E-01 3.050395432258705242E+00
pair_coeff 24   29   4.970281679412999476E-01 2.066743835286263042E+00
pair_coeff 25   29   4.970281679412999476E-01 2.066743835286263042E+00
pair_coeff 26     29   0.000000000000000000E+00 0.000000000000000000E+00
pair_coeff 27   29   3.662232044351344529E-01 2.174665717868782711E+00
pair_coeff 28   29   9.514925029300028148E-02 2.332037863859216742E+00
pair_coeff 29   29   1.211560614504652439E-01 2.813111536348800179E+00
pair_coeff 1      30     2.698242160009388657E-01 3.067797545829641592E+00
pair_coeff 2     30     3.133482940435941000E-01 2.992280441419951309E+00
pair_coeff 3     30     2.452947418190353224E-01 3.116918714488987607E+00
pair_coeff 4     30     2.452947418190353224E-01 3.116918714488987607E+00
pair_coeff 5     30     1.923710802470132430E-01 3.285476264338809127E+00
pair_coeff 6      30     1.908304307803131428E-01 3.270301513790756509E+00
pair_coeff 7     30     1.908304307803131428E-01 3.270301513790756509E+00
pair_coeff 8     30     1.908304307803131428E-01 3.270301513790756509E+00
pair_coeff 9     30     1.908304307803131428E-01 3.270301513790756509E+00
pair_coeff 10     30     1.908304307803131428E-01 3.270301513790756509E+00
pair_coeff 11     30     1.908304307803131428E-01 3.270301513790756509E+00
pair_coeff 12      30     1.256564845410435005E-01 3.494459690227617266E+00
pair_coeff 13    30     1.995417881967565324E-02 4.758109878000214898E+00
pair_coeff 14    30     7.349129780864194217E-02 4.136980420576664486E+00
pair_coeff 15    30     1.528643495920544437E-01 3.725499849556486165E+00
pair_coeff 16    30     2.221643793651205678E-01 3.574884956996347896E+00
pair_coeff 17    30     2.681854387748578428E-01 3.556730761031980492E+00
pair_coeff 18   30     1.651659715241092508E-01 3.672196303169541487E+00
pair_coeff 19    30     1.691468411565035523E-01 3.571675294227750541E+00
pair_coeff 20     30     8.208575087201354370E-02 2.844809681941795620E+00
pair_coeff 21      30     0.000000000000000000E+00 0.000000000000000000E+00
pair_coeff 22    30     0.000000000000000000E+00 0.000000000000000000E+00
pair_coeff 23      30     3.293621287006147091E-01 3.358378720212484847E+00
pair_coeff 24   30     6.968374682861073754E-01 2.275412703269175108E+00
pair_coeff 25   30     6.968374682861073754E-01 2.275412703269175108E+00
pair_coeff 26     30     0.000000000000000000E+00 0.000000000000000000E+00
pair_coeff 27   30     5.134478628509925313E-01 2.394230922729341682E+00
pair_coeff 28   30     1.334000102210023686E-01 2.567492153276457856E+00
pair_coeff 29   30     1.698617675500217472E-01 3.097137446951440776E+00
pair_coeff 30     30     2.381475572067369983E-01 3.409840044152281813E+00
pair_coeff 1      31      1.825200170718821457E-01 2.848641691863192271E+00
pair_coeff 2     31      2.119614644894694810E-01 2.778519342243783719E+00
pair_coeff 3     31      1.057395499456308119E-01 3.119966996841143647E+00
pair_coeff 4     31      1.659272882471655997E-01 2.894253765967063963E+00
pair_coeff 5     31      9.249981842420902656E-02 3.229343266454477224E+00
pair_coeff 6      31      7.192433081344887236E-02 3.347591749745056244E+00
pair_coeff 7     31      6.211065545356941192E-02 3.430447483334676306E+00
pair_coeff 8     31      4.555051328896060625E-02 3.612403446600987778E+00
pair_coeff 9     31      7.590927472598106573E-02 3.317640470558243848E+00
pair_coeff 10     31      6.506004412035899798E-02 3.404024952464428821E+00
pair_coeff 11     31      7.043799131579189798E-02 3.359262692221449242E+00
pair_coeff 12      31      8.499913033581890653E-02 3.244824150032262100E+00
pair_coeff 13    31      1.349781392048931411E-02 4.418202300006069727E+00
pair_coeff 14    31      4.971248737222838665E-02 3.841444791719262675E+00
pair_coeff 15    31      1.034036311148842646E-01 3.459359372949309286E+00
pair_coeff 16    31      1.502809752047785663E-01 3.319504035055336644E+00
pair_coeff 17    31      1.814114818495274339E-01 3.302646729860391872E+00
pair_coeff 18   31      1.117249459261637351E-01 3.409863699817805127E+00
pair_coeff 19    31      1.144177672156473091E-01 3.316523662640645131E+00
pair_coeff 20     31      5.552612316481649046E-02 2.641583528356301613E+00
pair_coeff 21      31      0.000000000000000000E+00 0.000000000000000000E+00
pair_coeff 22    31      0.000000000000000000E+00 0.000000000000000000E+00
pair_coeff 23      31      2.227938701879095817E-01 3.118464467275081642E+00
pair_coeff 24   31      1.066111026131294215E-01 2.706851401515291577E+00
pair_coeff 25   31      5.863480344158913254E-02 2.990466271099721407E+00
pair_coeff 26     31      0.000000000000000000E+00 0.000000000000000000E+00
pair_coeff 27   31      2.468865591596759723E-01 2.353325024008075417E+00
pair_coeff 28   31      6.414413594489304371E-02 2.523626052896363436E+00
pair_coeff 29   31      8.167642784672754508E-02 3.044222254215389167E+00
pair_coeff 30     31      1.610926433928725754E-01 3.166249521765611696E+00
pair_coeff 31      31      1.089695819670959825E-01 2.940060502624928240E+00
pair_coeff 1      32     3.028875918701723902E-01 3.094659625059138719E+00
pair_coeff 2     32     3.517449679133345941E-01 3.018481281955716966E+00
pair_coeff 3     32     2.468521531134249269E-01 3.201992541656678348E+00
pair_coeff 4     32     2.753523562456112184E-01 3.144210905779225573E+00
pair_coeff 5     32     2.159436024870309834E-01 3.314244369926244271E+00
pair_coeff 6      32     1.679095090878598429E-01 3.435601666955987898E+00
pair_coeff 7     32     1.449991894034274031E-01 3.520635720603371155E+00
pair_coeff 8     32     1.063390404686152813E-01 3.707375400182857383E+00
pair_coeff 9     32     1.772124802594848836E-01 3.404862953159864425E+00
pair_coeff 10     32     1.518846257717465786E-01 3.493518527740791413E+00
pair_coeff 11     32     1.644396049182014208E-01 3.447579444541888805E+00
pair_coeff 12      32     1.410540186851716171E-01 3.525057684932574986E+00
pair_coeff 13    32     2.239929855079176788E-02 4.799772576602748586E+00
pair_coeff 14    32     8.249668078937649751E-02 4.173204419770964790E+00
pair_coeff 15    32     1.715958464253498628E-01 3.758120865328633986E+00
pair_coeff 16    32     2.493876749186909880E-01 3.606187166974876845E+00
pair_coeff 17    32     3.010480042491057717E-01 3.587874010243685685E+00
pair_coeff 18   32     1.854048688263800759E-01 3.704350585376364968E+00
pair_coeff 19    32     1.898735411878733903E-01 3.602949399934630925E+00
pair_coeff 20     32     9.214426998795607893E-02 2.869719247168172060E+00
pair_coeff 21      32     0.000000000000000000E+00 0.000000000000000000E+00
pair_coeff 22    32     0.000000000000000000E+00 0.000000000000000000E+00
pair_coeff 23      32     3.697210854307304562E-01 3.387785170252723521E+00
pair_coeff 24   32     2.488868189752940496E-01 2.778015923822349631E+00
pair_coeff 25   32     1.368847085539993957E-01 3.069087174906648396E+00
pair_coeff 26     32     0.000000000000000000E+00 0.000000000000000000E+00
pair_coeff 27   32     5.763640826414281326E-01 2.415195155140145822E+00
pair_coeff 28   32     1.497464106452001675E-01 2.589973486093279487E+00
pair_coeff 29   32     1.906760723205734864E-01 3.124256430600719447E+00
pair_coeff 30     32     2.673293790349109966E-01 3.439697096991523484E+00
pair_coeff 31      32     1.808324084043584357E-01 3.193973660742658982E+00
pair_coeff 32     32     3.000870457518571288E-01 3.469815582505817453E+00
pair_coeff 1      33     4.619134934213758870E-01 3.174341374980300667E+00
pair_coeff 2     33     5.364225913614864005E-01 3.096201580725539859E+00
pair_coeff 3     33     3.764576148503470665E-01 3.284437915256962270E+00
pair_coeff 4     33     4.199213576557962457E-01 3.225168509344078061E+00
pair_coeff 5     33     3.293210632726623621E-01 3.399580020064839836E+00
pair_coeff 6      33     2.560674983169540231E-01 3.524062042578035125E+00
pair_coeff 7     33     2.211285107688185092E-01 3.611285565510714335E+00
pair_coeff 8     33     1.621705180019040737E-01 3.802833445749207453E+00
pair_coeff 9     33     2.702548339108319375E-01 3.492531863870627973E+00
pair_coeff 10     33     2.316290266433154443E-01 3.583470155189018680E+00
pair_coeff 11     33     2.507757808618153450E-01 3.536348225738003670E+00
pair_coeff 12      33     2.151119962679723108E-01 3.615821387226038297E+00
pair_coeff 13    33     3.415966358971698341E-02 4.923357824889950329E+00
pair_coeff 14    33     1.258101389489161837E-01 4.280656699257024300E+00
pair_coeff 15    33     2.616892834385430300E-01 3.854885512574417916E+00
pair_coeff 16    33     3.803243686103310317E-01 3.699039803071263677E+00
pair_coeff 17    33     4.591080620755257913E-01 3.680255116494558720E+00
pair_coeff 18   33     2.827484946746637862E-01 3.799730747567426459E+00
pair_coeff 19    33     2.895633663196458540E-01 3.695718669530379863E+00
pair_coeff 20     33     1.405230283158743487E-01 2.943609199247290142E+00
pair_coeff 21      33     0.000000000000000000E+00 0.000000000000000000E+00
pair_coeff 22    33     0.000000000000000000E+00 0.000000000000000000E+00
pair_coeff 23      33     5.638367590708479593E-01 3.475014359704387434E+00
pair_coeff 24   33     3.795605468998184961E-01 2.849544685281790724E+00
pair_coeff 25   33     2.087536618246373654E-01 3.148110481630561619E+00
pair_coeff 26     33     0.000000000000000000E+00 0.000000000000000000E+00
pair_coeff 27   33     8.789740948174059598E-01 2.477381954232469763E+00
pair_coeff 28   33     2.283681785752544047E-01 2.656660503285802832E+00
pair_coeff 29   33     2.907872525699738975E-01 3.204700243411942928E+00
pair_coeff 30     33     4.076860547562866088E-01 3.528262922346804054E+00
pair_coeff 31      33     2.757753428396018114E-01 3.276212563021035251E+00
pair_coeff 32     33     4.576425689077261438E-01 3.559156903043612541E+00
pair_coeff 33     33     6.979198997135206417E-01 3.650798597006346569E+00
pair_coeff 1      34   2.726298193589453134E-01 3.152721713066568121E+00
pair_coeff 2     34   3.166064561130476629E-01 3.075114109819085950E+00
pair_coeff 3     34   2.478452903263138885E-01 3.203202676262477233E+00
pair_coeff 4     34   2.478452903263138885E-01 3.203202676262477233E+00
pair_coeff 5     34   1.943713341779741421E-01 3.376426312885838499E+00
pair_coeff 6      34   1.928146652027906693E-01 3.360831487989961452E+00
pair_coeff 7     34   1.928146652027906693E-01 3.360831487989961452E+00
pair_coeff 8     34   1.928146652027906693E-01 3.360831487989961452E+00
pair_coeff 9     34   1.928146652027906693E-01 3.360831487989961452E+00
pair_coeff 10     34   1.928146652027906693E-01 3.360831487989961452E+00
pair_coeff 11     34   1.928146652027906693E-01 3.360831487989961452E+00
pair_coeff 12      34   1.269630472365963769E-01 3.591194913038851411E+00
pair_coeff 13    34   2.016166023825427880E-02 4.889826040157090326E+00
pair_coeff 14    34   7.425545246819055534E-02 4.251502194534839241E+00
pair_coeff 15    34   1.544538167603142498E-01 3.828630831160853454E+00
pair_coeff 16    34   2.244744208358758208E-01 3.673846548628572073E+00
pair_coeff 17    34   2.709740023024271305E-01 3.655189799952984320E+00
pair_coeff 18   34   1.668833496423683671E-01 3.773851711754483418E+00
pair_coeff 19    34   1.709056119317078348E-01 3.670548034515104696E+00
pair_coeff 20     34   8.293926973590307061E-02 2.923560997691061925E+00
pair_coeff 21      34   0.000000000000000000E+00 0.000000000000000000E+00
pair_coeff 22    34   0.000000000000000000E+00 0.000000000000000000E+00
pair_coeff 23      34   3.327868009112045500E-01 3.451346887707100741E+00
pair_coeff 24   34   7.040831098003642596E-01 2.338401712830169732E+00
pair_coeff 25   34   7.040831098003642596E-01 2.338401712830169732E+00
pair_coeff 26     34   0.000000000000000000E+00 0.000000000000000000E+00
pair_coeff 27   34   5.187866388494037917E-01 2.460509112293086442E+00
pair_coeff 28   34   1.347870892689141398E-01 2.638566639042558393E+00
pair_coeff 29   34   1.716279720534513720E-01 3.182873814678249147E+00
pair_coeff 30     34   2.406237900523386375E-01 3.504232787426495133E+00
pair_coeff 31      34   1.627676674805978718E-01 3.253899081387234382E+00
pair_coeff 32     34   2.701090413448035132E-01 3.534916356784718605E+00
pair_coeff 33     34   4.119251307784054794E-01 3.625933901607006682E+00
pair_coeff 34   34   2.431257705023985027E-01 3.601238553560273559E+00
pair_coeff 1      35   1.774056427875315700E-01 3.022113465134438570E+00
pair_coeff 2     35   1.088910246333028992E-01 3.278234300527326894E+00
pair_coeff 3     35   1.633809098206280841E-01 3.063880240200058669E+00
pair_coeff 4     35   1.633809098206280841E-01 3.063880240200058669E+00
pair_coeff 5     35   1.429238586712428538E-01 3.171290283817308264E+00
pair_coeff 6      35   1.111321413093139809E-01 3.287413047857584036E+00
pair_coeff 7     35   9.596877802844315519E-02 3.368779307561466041E+00
pair_coeff 8     35   7.038127462972523785E-02 3.547464300384358893E+00
pair_coeff 9     35   1.172893810776735740E-01 3.258000194272241412E+00
pair_coeff 10     35   1.005259546387323316E-01 3.342831766990879583E+00
pair_coeff 11     35   1.088355597600791647E-01 3.298874185130554082E+00
pair_coeff 12      35   9.335763782481623640E-02 3.373010538257620983E+00
pair_coeff 13    35   1.482514019187304057E-02 4.592742851080654276E+00
pair_coeff 14    35   5.460103383565441393E-02 3.993200606718578349E+00
pair_coeff 15    35   1.135719707396375816E-01 3.596020949382504384E+00
pair_coeff 16    35   1.650590635421556873E-01 3.450640643166755339E+00
pair_coeff 17    35   1.992508317774452642E-01 3.433117392155260461E+00
pair_coeff 18   35   1.227115735956721548E-01 3.544569955630175073E+00
pair_coeff 19    35   1.256691972052001172E-01 3.447542531497872709E+00
pair_coeff 20     35   6.098636157519143897E-02 2.745938968293540228E+00
pair_coeff 21      35   0.000000000000000000E+00 0.000000000000000000E+00
pair_coeff 22    35   0.000000000000000000E+00 0.000000000000000000E+00
pair_coeff 23      35   2.447026147257768958E-01 3.241659031413521852E+00
pair_coeff 24   35   1.647275683589491391E-01 2.658191106078167110E+00
pair_coeff 25   35   9.059814930521523091E-02 2.936707512061449421E+00
pair_coeff 26     35   0.000000000000000000E+00 0.000000000000000000E+00
pair_coeff 27   35   3.814707995138282293E-01 2.311019971405739337E+00
pair_coeff 28   35   9.911076125937028081E-02 2.478259547281012942E+00
pair_coeff 29   35   1.262003583272166274E-01 2.989497139204101650E+00
pair_coeff 30     35   1.769339121317631824E-01 3.291331828740973631E+00
pair_coeff 31      35   8.507700182510755105E-02 3.235098787405478848E+00
pair_coeff 32     35   1.986148143410966516E-01 3.320151206497628849E+00
pair_coeff 33     35   3.028940940468037857E-01 3.405638946730622507E+00
pair_coeff 34   35   1.787736520386526418E-01 3.382443973685540506E+00
pair_coeff 35   35   1.314546730163348442E-01 3.176942339410103067E+00
pair_coeff 1      36    3.493138043396110115E-02 2.995467182793318806E+00
pair_coeff 2     36    1.286586045970535865E-02 3.538023538529870837E+00
pair_coeff 3     36    3.216989396118666994E-02 3.036865695947625898E+00
pair_coeff 4     36    3.216989396118666994E-02 3.036865695947625898E+00
pair_coeff 5     36    2.814187644704253116E-02 3.143328694266439349E+00
pair_coeff 6      36    2.791649554839393046E-02 3.128810485949500286E+00
pair_coeff 7     36    2.791649554839393046E-02 3.128810485949500286E+00
pair_coeff 8     36    2.791649554839393046E-02 3.128810485949500286E+00
pair_coeff 9     36    2.309441755578705083E-02 3.229274074606136136E+00
pair_coeff 10     36    2.791649554839393046E-02 3.128810485949500286E+00
pair_coeff 11     36    2.791649554839393046E-02 3.128810485949500286E+00
pair_coeff 12      36    1.838222906573640236E-02 3.343270360670348218E+00
pair_coeff 13    36    2.919087599988792053E-03 4.552248169414355949E+00
pair_coeff 14    36    1.075100800082823098E-02 3.957992150107363383E+00
pair_coeff 15    36    2.236245507304574984E-02 3.564314466278117433E+00
pair_coeff 16    36    3.250032440946476475E-02 3.420215993034873669E+00
pair_coeff 17    36    3.923272392714612089E-02 3.402847246312967755E+00
pair_coeff 18   36    2.416205366169842800E-02 3.513317121179974301E+00
pair_coeff 19    36    2.474441324091778208E-02 3.417145197732238238E+00
pair_coeff 20     36    1.200828656852534135E-02 2.721727744630110912E+00
pair_coeff 21      36    0.000000000000000000E+00 0.000000000000000000E+00
pair_coeff 22    36    0.000000000000000000E+00 0.000000000000000000E+00
pair_coeff 23      36    4.818223363057468761E-02 3.213076993445320717E+00
pair_coeff 24   36    1.019400312718368312E-01 2.176965975714864943E+00
pair_coeff 25   36    1.019400312718368312E-01 2.176965975714864943E+00
pair_coeff 26     36    0.000000000000000000E+00 0.000000000000000000E+00
pair_coeff 27   36    7.511205062526553344E-02 2.290643472851174423E+00
pair_coeff 28   36    1.951502585967282086E-02 2.456408480346143008E+00
pair_coeff 29   36    2.484899949270408595E-02 2.963138438331942570E+00
pair_coeff 30     36    3.483849611111720229E-02 3.262311820657642247E+00
pair_coeff 31      36    1.675176206482257082E-02 3.206574591777111127E+00
pair_coeff 32     36    3.910749134331937410E-02 3.290877095024250742E+00
pair_coeff 33     36    5.964020458481446990E-02 3.375611081141380421E+00
pair_coeff 34   36    3.520074306999246977E-02 3.352620620536940876E+00
pair_coeff 35   36    2.588358025598428910E-02 3.148930915109191542E+00
pair_coeff 36    36    5.096507499468877836E-03 3.121166470390387637E+00
pair_coeff 1      37    2.226461306623754022E-01 3.362204455973978323E+00
pair_coeff 2     37    2.585601331580250628E-01 3.279440211868734245E+00
pair_coeff 3     37    1.814556892113898812E-01 3.478816702288478169E+00
pair_coeff 4     37    2.024055733294321535E-01 3.416039629150127599E+00
pair_coeff 5     37    1.587354808368636461E-01 3.600773118478173718E+00
pair_coeff 6      37    1.234266556414602978E-01 3.732622205057627429E+00
pair_coeff 7     37    1.065857741828254851E-01 3.825007768809989717E+00
pair_coeff 8     37    7.816753321752194228E-02 4.027891788010422580E+00
pair_coeff 9     37    1.302650689360985159E-01 3.699226015163477044E+00
pair_coeff 10     37    1.116471098283786517E-01 3.795546193799352430E+00
pair_coeff 11     37    1.208760039875793058E-01 3.745635506050692953E+00
pair_coeff 12      37    1.036857643481583074E-01 3.829812028396864854E+00
pair_coeff 13    37    1.646524085418059336E-02 5.214730762000061581E+00
pair_coeff 14    37    6.064152927768903800E-02 4.533993458352017392E+00
pair_coeff 15    37    1.261364026450952358E-01 4.083024387295987268E+00
pair_coeff 16    37    1.833194965587523484E-01 3.917955455811204413E+00
pair_coeff 17    37    2.212938895114058557E-01 3.898059058590013226E+00
pair_coeff 18   37    1.362871169309986807E-01 4.024605466717271263E+00
pair_coeff 19    37    1.395719415233208360E-01 3.914437771771909880E+00
pair_coeff 20     37    6.773326384502838249E-02 3.117817146058102118E+00
pair_coeff 21      37    0.000000000000000000E+00 0.000000000000000000E+00
pair_coeff 22    37    0.000000000000000000E+00 0.000000000000000000E+00
pair_coeff 23      37    2.717739891131936147E-01 3.680671794426697563E+00
pair_coeff 24   37    1.829513281662208113E-01 3.018185729444698318E+00
pair_coeff 25   37    1.006209944693221142E-01 3.334421172424263169E+00
pair_coeff 26     37    0.000000000000000000E+00 0.000000000000000000E+00
pair_coeff 27   37    4.236727957739777617E-01 2.623997756297280493E+00
pair_coeff 28   37    1.100753540442943462E-01 2.813886323808834078E+00
pair_coeff 29   37    1.401618648355585917E-01 3.394360015399224828E+00
pair_coeff 30     37    1.965080559655630332E-01 3.737071700247052153E+00
pair_coeff 31      37    1.329259999757477217E-01 3.470104559304247438E+00
pair_coeff 32     37    2.205875096632962662E-01 3.769794040818323477E+00
pair_coeff 33     37    3.364031737469428962E-01 3.866859250698725603E+00
pair_coeff 34   37    1.985513257278677390E-01 3.840523019086392154E+00
pair_coeff 35   37    1.459974627294264860E-01 3.607190623033505794E+00
pair_coeff 36    37    2.874707271347901050E-02 3.575385655778474892E+00
pair_coeff 37    37    1.621491167589119986E-01 4.095706752209074430E+00
pair_coeff 1      38   1.763627633860331279E-01 3.063392634298282680E+00
pair_coeff 2     38   2.048110131065301875E-01 2.987983961478049899E+00
pair_coeff 3     38   1.603297848963937400E-01 3.112443272096635738E+00
pair_coeff 4     38   1.603297848963937400E-01 3.112443272096635738E+00
pair_coeff 5     38   1.257377703556508686E-01 3.280758797795926274E+00
pair_coeff 6      38   1.247307695705341529E-01 3.265605835984801697E+00
pair_coeff 7     38   1.247307695705341529E-01 3.265605835984801697E+00
pair_coeff 8     38   1.247307695705341529E-01 3.265605835984801697E+00
pair_coeff 9     38   1.247307695705341529E-01 3.265605835984801697E+00
pair_coeff 10     38   1.247307695705341529E-01 3.265605835984801697E+00
pair_coeff 11     38   1.247307695705341529E-01 3.265605835984801697E+00
pair_coeff 12      38   8.213171219204309925E-02 3.489442153850004225E+00
pair_coeff 13    38   1.304246953774084068E-02 4.751277923558641980E+00
pair_coeff 14    38   4.803545270493036340E-02 4.131040317787165073E+00
pair_coeff 15    38   9.991534309570471173E-02 3.720150573079720857E+00
pair_coeff 16    38   1.452112951590650569E-01 3.569751941621275737E+00
pair_coeff 17    38   1.752916242405209712E-01 3.551623812444546502E+00
pair_coeff 18   38   1.079559410458155871E-01 3.666923562840495698E+00
pair_coeff 19    38   1.105579208808877417E-01 3.566546887462056503E+00
pair_coeff 20     38   5.365296737619508483E-02 2.840724948583317921E+00
pair_coeff 21      38   0.000000000000000000E+00 0.000000000000000000E+00
pair_coeff 22    38   0.000000000000000000E+00 0.000000000000000000E+00
pair_coeff 23      38   2.152779911056781903E-01 3.353556576335538608E+00
pair_coeff 24   38   4.554675757398939928E-01 2.272145541239902311E+00
pair_coeff 25   38   4.554675757398939928E-01 2.272145541239902311E+00
pair_coeff 26     38   0.000000000000000000E+00 0.000000000000000000E+00
pair_coeff 27   38   3.356002855827399101E-01 2.390793155000958237E+00
pair_coeff 28   38   8.719304288914962731E-02 2.563805607595497360E+00
pair_coeff 29   38   1.110252117573227587E-01 3.092690407585096501E+00
pair_coeff 30     38   1.556582352210648112E-01 3.404944009291379192E+00
pair_coeff 31      38   1.052935283978697484E-01 3.161703247501671754E+00
pair_coeff 32     38   1.747320856505523434E-01 3.434758191740909350E+00
pair_coeff 33     38   2.664721509299896041E-01 3.523196849439405476E+00
pair_coeff 34   38   1.572767529134725395E-01 3.499201218301315031E+00
pair_coeff 35   38   1.156477136957594076E-01 3.286605954458409862E+00
pair_coeff 36    38   2.277117131083897586E-02 3.257627614890140855E+00
pair_coeff 37    38   1.284417844007869070E-01 3.731705808274059954E+00
pair_coeff 38   38   1.017414853056947954E-01 3.400055004425153182E+00
pair_coeff 1      39  3.025968882784489944E-01 3.081336470273898787E+00
pair_coeff 2     39  3.514073722894541785E-01 3.005486090817345968E+00
pair_coeff 3     39  2.750880802531354141E-01 3.130674422401240609E+00
pair_coeff 4     39  2.750880802531354141E-01 3.130674422401240609E+00
pair_coeff 5     39  2.157363454631790467E-01 3.299975857040665872E+00
pair_coeff 6      39  2.140085697228813477E-01 3.284734136688360451E+00
pair_coeff 7     39  2.140085697228813477E-01 3.284734136688360451E+00
pair_coeff 8     39  2.140085697228813477E-01 3.284734136688360451E+00
pair_coeff 9     39  2.140085697228813477E-01 3.284734136688360451E+00
pair_coeff 10     39  2.140085697228813477E-01 3.284734136688360451E+00
pair_coeff 11     39  2.140085697228813477E-01 3.284734136688360451E+00
pair_coeff 12      39  1.409186387258750672E-01 3.509881576780662371E+00
pair_coeff 13    39  2.237780028966923282E-02 4.779108555120642698E+00
pair_coeff 14    39  8.241750263201898241E-02 4.155237904815708205E+00
pair_coeff 15    39  1.714311532183001030E-01 3.741941371601773980E+00
pair_coeff 16    39  2.491483191485096838E-01 3.590661779490871286E+00
pair_coeff 17    39  3.007590662454852626E-01 3.572427464716889212E+00
pair_coeff 18   39  1.852269220806647965E-01 3.688402583913419353E+00
pair_coeff 19    39  1.896913055272583803E-01 3.587437951712664219E+00
pair_coeff 20     39  9.205583232672064076E-02 2.857364507599851500E+00
pair_coeff 21      39  0.000000000000000000E+00 0.000000000000000000E+00
pair_coeff 22    39  0.000000000000000000E+00 0.000000000000000000E+00
pair_coeff 23      39  3.693662367992399664E-01 3.373200048891741964E+00
pair_coeff 24   39  7.814748900761182560E-01 2.285454643849949008E+00
pair_coeff 25   39  7.814748900761182560E-01 2.285454643849949008E+00
pair_coeff 26     39  0.000000000000000000E+00 0.000000000000000000E+00
pair_coeff 27   39  5.758109034638668744E-01 2.404797236536131866E+00
pair_coeff 28   39  1.496026879553617739E-01 2.578823110340977554E+00
pair_coeff 29   39  1.904930664115593308E-01 3.110805855398001363E+00
pair_coeff 30     39  2.670728032862023649E-01 3.424888483964596109E+00
pair_coeff 31      39  1.806588501866098206E-01 3.180222938331227489E+00
pair_coeff 32     39  2.997990300510781636E-01 3.454877303120381882E+00
pair_coeff 33     39  4.572033355350892392E-01 3.543833990649556398E+00
pair_coeff 34   39  2.698497977488837352E-01 3.519697804995386647E+00
pair_coeff 35   39  1.984241890350484927E-01 3.305857263449297090E+00
pair_coeff 36    39  3.906995699558794138E-02 3.276709183128165837E+00
pair_coeff 37    39  2.203757955387509737E-01 3.753564291637640160E+00
pair_coeff 38   39  1.745857558702323398E-01 3.420002180612172538E+00
pair_coeff 39  39  2.995112907802387481E-01 3.440003336141669088E+00
pair_coeff 1      40   7.770287548036601544E-02 2.465397265096893165E+00
pair_coeff 2     40   9.023676167734992482E-02 2.404708885274443819E+00
pair_coeff 3     40   7.063897770942365040E-02 2.504872880114495270E+00
pair_coeff 4     40   7.063897770942365040E-02 2.504872880114495270E+00
pair_coeff 5     40   5.539823784535763407E-02 2.640332054392829697E+00
pair_coeff 6      40   5.495456790555701410E-02 2.628137055231117181E+00
pair_coeff 7     40   5.495456790555701410E-02 2.628137055231117181E+00
pair_coeff 8     40   5.495456790555701410E-02 2.628137055231117181E+00
pair_coeff 9     40   5.495456790555701410E-02 2.628137055231117181E+00
pair_coeff 10     40   5.495456790555701410E-02 2.628137055231117181E+00
pair_coeff 11     40   5.495456790555701410E-02 2.628137055231117181E+00
pair_coeff 12      40   3.618604110595938922E-02 2.808278980140014092E+00
pair_coeff 13    40   5.746322902807278477E-03 3.823795705227954755E+00
pair_coeff 14    40   2.116372372780480487E-02 3.324632757632268287E+00
pair_coeff 15    40   4.402125093804482719E-02 2.993951524832954014E+00
pair_coeff 16    40   6.397799041847561374E-02 2.872911743474042101E+00
pair_coeff 17    40   7.723094710927499995E-02 2.858322350135023004E+00
pair_coeff 18   40   4.756382176938069029E-02 2.951114794077698278E+00
pair_coeff 19    40   4.871021634409310186E-02 2.870332337990671334E+00
pair_coeff 20     40   2.363871921228234349E-02 2.286195847282922244E+00
pair_coeff 21      40   0.000000000000000000E+00 0.000000000000000000E+00
pair_coeff 22    40   0.000000000000000000E+00 0.000000000000000000E+00
pair_coeff 23      40   9.484836036467202136E-02 2.698919204504523606E+00
pair_coeff 24   40   2.006724075058574086E-01 1.828607061516331456E+00
pair_coeff 25   40   2.006724075058574086E-01 1.828607061516331456E+00
pair_coeff 26     40   0.000000000000000000E+00 0.000000000000000000E+00
pair_coeff 27   40   1.478606180871174514E-01 1.924093842806378074E+00
pair_coeff 28   40   3.841598999863683750E-02 2.063333071457193135E+00
pair_coeff 29   40   4.891609792639325244E-02 2.488975910983167061E+00
pair_coeff 30     40   6.858076068133200920E-02 2.740275456148935529E+00
pair_coeff 31      40   4.639080137386862590E-02 2.544516968594239259E+00
pair_coeff 32     40   7.698442252240610129E-02 2.764269704567898334E+00
pair_coeff 33     40   1.174037646335611834E-01 2.835444526357811412E+00
pair_coeff 34   40   6.929385610069017931E-02 2.816133007906088892E+00
pair_coeff 35   40   5.095270523302689036E-02 2.645037805749309356E+00
pair_coeff 36    40   1.003264779331716934E-02 2.621716237916714931E+00
pair_coeff 37    40   5.658958721306098921E-02 3.003251098425550492E+00
pair_coeff 38   40   4.492103907914993949E-02 2.799891255752950503E+00
pair_coeff 39  40   7.712993371945030263E-02 2.820082387646319688E+00
pair_coeff 40   40   1.974960730563848910E-02 2.202188219488486975E+00
pair_coeff 1      41  3.078683944880841739E-01 3.134598379462572915E+00
pair_coeff 2     41  3.575292004274581159E-01 3.057436901376735072E+00
pair_coeff 3     41  2.798803586255310671E-01 3.184789154237201991E+00
pair_coeff 4     41  2.798803586255310671E-01 3.184789154237201991E+00
pair_coeff 5     41  2.194946639681157330E-01 3.357017019574562333E+00
pair_coeff 6      41  2.177367888418141884E-01 3.341511841098447899E+00
pair_coeff 7     41  2.177367888418141884E-01 3.341511841098447899E+00
pair_coeff 8     41  2.177367888418141884E-01 3.341511841098447899E+00
pair_coeff 9     41  2.177367888418141884E-01 3.341511841098447899E+00
pair_coeff 10     41  2.177367888418141884E-01 3.341511841098447899E+00
pair_coeff 11     41  2.177367888418141884E-01 3.341511841098447899E+00
pair_coeff 12      41  1.433735664130799115E-01 3.570551028367321855E+00
pair_coeff 13    41  2.276764142074000352E-02 4.861717010354688284E+00
pair_coeff 14    41  8.385328863556677781E-02 4.227062551711202154E+00
pair_coeff 15    41  1.744176359738121573E-01 3.806622052678410917E+00
pair_coeff 16    41  2.534887038728330655E-01 3.652727543314932213E+00
pair_coeff 17    41  3.059985559650827969E-01 3.634178042443301226E+00
pair_coeff 18   41  1.884537393671708305E-01 3.752157829525465615E+00
pair_coeff 19    41  1.929958963334948985E-01 3.649447990618651438E+00
pair_coeff 20     41  9.365952658314305457E-02 2.906754988123776862E+00
pair_coeff 21      41  0.000000000000000000E+00 0.000000000000000000E+00
pair_coeff 22    41  0.000000000000000000E+00 0.000000000000000000E+00
pair_coeff 23      41  3.758009242872520916E-01 3.431506915542800851E+00
pair_coeff 24   41  7.950888758614560459E-01 2.324959475233958628E+00
pair_coeff 25   41  7.950888758614560459E-01 2.324959475233958628E+00
pair_coeff 26     41  0.000000000000000000E+00 0.000000000000000000E+00
pair_coeff 27   41  5.858420401700457081E-01 2.446364943686976545E+00
pair_coeff 28   41  1.522088994832513364E-01 2.623398911666701139E+00
pair_coeff 29   41  1.938116246035951340E-01 3.164577152551757422E+00
pair_coeff 30     41  2.717254484239552959E-01 3.484088802129798879E+00
pair_coeff 31      41  1.838060876086547446E-01 3.235194132478707463E+00
pair_coeff 32     41  3.050217950885778517E-01 3.514595987837878077E+00
pair_coeff 33     41  4.651682231981815185E-01 3.605090320820125260E+00
pair_coeff 34   41  2.745508205934842905E-01 3.580536933298883895E+00
pair_coeff 35   41  2.018809144184158522E-01 3.363000088017528810E+00
pair_coeff 36    41  3.975059030310198332E-02 3.333348173589975261E+00
pair_coeff 37    41  2.242149373793861367E-01 3.818445878690444051E+00
pair_coeff 38   41  1.776054487496074863E-01 3.479086156840626831E+00
pair_coeff 39  41  3.047290431444037995E-01 3.499464919472758506E+00
pair_coeff 40   41  7.825038462692963936E-02 2.799944545168011611E+00
pair_coeff 41  41  3.100376933831125448E-01 3.559954315729227936E+00
pair_coeff 1      42  2.517150719017874350E-01 3.216286733597559344E+00
pair_coeff 2     42  2.923180488930291476E-01 3.137114409660223480E+00
pair_coeff 3     42  2.288318835470794788E-01 3.267785491497223305E+00
pair_coeff 4     42  2.288318835470794788E-01 3.267785491497223305E+00
pair_coeff 5     42  1.794601723072659361E-01 3.444501654585188533E+00
pair_coeff 6      42  1.780229229119614787E-01 3.428592407594721170E+00
pair_coeff 7     42  1.780229229119614787E-01 3.428592407594721170E+00
pair_coeff 8     42  1.780229229119614787E-01 3.428592407594721170E+00
pair_coeff 9     42  1.780229229119614787E-01 3.428592407594721170E+00
pair_coeff 10     42  1.780229229119614787E-01 3.428592407594721170E+00
pair_coeff 11     42  1.780229229119614787E-01 3.428592407594721170E+00
pair_coeff 12      42  1.172230999498745652E-01 3.663600408719620116E+00
pair_coeff 13    42  1.861496210673063006E-02 4.988414472922134912E+00
pair_coeff 14    42  6.855895881485152277E-02 4.337220773235620719E+00
pair_coeff 15    42  1.426049200441300291E-01 3.905823498176049124E+00
pair_coeff 16    42  2.072539060975635561E-01 3.747918462531858008E+00
pair_coeff 17    42  2.501862805523388245E-01 3.728885557404626905E+00
pair_coeff 18   42  1.540809235512614617E-01 3.849939924851243589E+00
pair_coeff 19    42  1.577946187139902257E-01 3.744553443938634096E+00
pair_coeff 20     42  7.657659860592054557E-02 2.982505691119483604E+00
pair_coeff 21      42  0.000000000000000000E+00 0.000000000000000000E+00
pair_coeff 22    42  0.000000000000000000E+00 0.000000000000000000E+00
pair_coeff 23      42  3.072571214561132247E-01 3.520932774360979955E+00
pair_coeff 24   42  6.500695009260647472E-01 2.385548453460561547E+00
pair_coeff 25   42  6.500695009260647472E-01 2.385548453460561547E+00
pair_coeff 26     42  0.000000000000000000E+00 0.000000000000000000E+00
pair_coeff 27   42  4.789880153488779158E-01 2.510117776321816319E+00
pair_coeff 28   42  1.244469220077783211E-01 2.691765290191502125E+00
pair_coeff 29   42  1.584615631091823018E-01 3.247046760402909182E+00
pair_coeff 30     42  2.221643793651205678E-01 3.574884956996347896E+00
pair_coeff 31      42  1.502809752047785663E-01 3.319504035055336644E+00
pair_coeff 32     42  2.493876749186909880E-01 3.606187166974876845E+00
pair_coeff 33     42  3.803243686103310317E-01 3.699039803071263677E+00
pair_coeff 34   42  2.244744208358758208E-01 3.673846548628572073E+00
pair_coeff 35   42  1.650590635421556873E-01 3.450640643166755339E+00
pair_coeff 36    42  3.250032440946476475E-02 3.420215993034873669E+00
pair_coeff 37    42  1.833194965587523484E-01 3.917955455811204413E+00
pair_coeff 38   42  1.452112951590650569E-01 3.569751941621275737E+00
pair_coeff 39  42  2.491483191485096838E-01 3.590661779490871286E+00
pair_coeff 40   42  6.397799041847561374E-02 2.872911743474042101E+00
pair_coeff 41  42  2.534887038728330655E-01 3.652727543314932213E+00
pair_coeff 42  42  2.072539060975635561E-01 3.747918462531858008E+00
pair_coeff 1      43  3.540045720962458620E-01 2.694267436109534231E+00
pair_coeff 2     43  4.111073883361350823E-01 2.627945173235017418E+00
pair_coeff 3     43  2.223108962183115156E-01 2.911490578234520399E+00
pair_coeff 4     43  3.218223382693144452E-01 2.737407690042663599E+00
pair_coeff 5     43  1.944751755089789147E-01 3.013558317663839858E+00
pair_coeff 6      43  1.512164790871689257E-01 3.123905428815852758E+00
pair_coeff 7     43  1.305838306072752142E-01 3.201224736341582222E+00
pair_coeff 8     43  9.576715086909036445E-02 3.371022389085928772E+00
pair_coeff 9     43  1.595945784173651294E-01 3.095955496253500083E+00
pair_coeff 10     43  1.367847387646038970E-01 3.176567760880071756E+00
pair_coeff 11     43  1.480915417673231704E-01 3.134796518078508232E+00
pair_coeff 12      43  1.648590726968548470E-01 3.068979881992677683E+00
pair_coeff 13    43  2.617952769134209573E-02 4.178770049266796960E+00
pair_coeff 14    43  9.641927555329404820E-02 3.633268318548095621E+00
pair_coeff 15    43  2.005553077041754007E-01 3.271888962013142610E+00
pair_coeff 16    43  2.914757141438480414E-01 3.139612697248032713E+00
pair_coeff 17    43  3.518545255241552483E-01 3.123668927072572821E+00
pair_coeff 18   43  2.166948168731066826E-01 3.225075569957748023E+00
pair_coeff 19    43  2.219176470240586396E-01 3.136793837871186597E+00
pair_coeff 20     43  1.076950451050141949E-01 2.498430216949698135E+00
pair_coeff 21      43  0.000000000000000000E+00 0.000000000000000000E+00
pair_coeff 22    43  0.000000000000000000E+00 0.000000000000000000E+00
pair_coeff 23      43  4.321172545720066149E-01 2.949467912669808012E+00
pair_coeff 24   43  2.241432820636522216E-01 2.525979396632042295E+00
pair_coeff 25   43  1.232760656668827753E-01 2.790643100279648792E+00
pair_coeff 26     43  0.000000000000000000E+00 0.000000000000000000E+00
pair_coeff 27   43  5.190637964627597967E-01 2.196075677037649054E+00
pair_coeff 28   43  1.348590981935383903E-01 2.354997178955427373E+00
pair_coeff 29   43  1.717196629251071804E-01 2.840807104746190692E+00
pair_coeff 30     43  3.124453591831943267E-01 2.994663388329067644E+00
pair_coeff 31      43  2.113506828162100282E-01 2.780732057331203322E+00
pair_coeff 32     43  3.507313903718691228E-01 3.020885094292788509E+00
pair_coeff 33     43  5.348768524286334758E-01 3.098667286775234508E+00
pair_coeff 34   43  3.156941326324790298E-01 3.077563022548567950E+00
pair_coeff 35   43  1.788691604327004581E-01 3.018929254291899511E+00
pair_coeff 36    43  3.521954878549677509E-02 2.992311047462213214E+00
pair_coeff 37    43  2.578150741863444728E-01 3.282051842720017820E+00
pair_coeff 38   43  2.042208359552802888E-01 2.990363486821641992E+00
pair_coeff 39  43  3.503947675532131378E-01 3.007879554241217335E+00
pair_coeff 40   43  8.997673818477992802E-02 2.406623910860338000E+00
pair_coeff 41  43  3.564989552184898436E-01 3.059871736599097503E+00
pair_coeff 42  43  2.914757141438480414E-01 3.139612697248032713E+00
pair_coeff 43  43  4.099227538595709985E-01 2.630037976349726581E+00
pair_coeff 1      44   1.289710283612314212E-01 3.227417274371960687E+00
pair_coeff 2     44   1.497747397064584929E-01 3.147970960317207023E+00
pair_coeff 3     44   1.172463894193012807E-01 3.279094253018750571E+00
pair_coeff 4     44   1.172463894193012807E-01 3.279094253018750571E+00
pair_coeff 5     44   9.194984947656417718E-02 3.456421974285966314E+00
pair_coeff 6      44   9.121344727734942426E-02 3.440457670474703633E+00
pair_coeff 7     44   9.121344727734942426E-02 3.440457670474703633E+00
pair_coeff 8     44   9.121344727734942426E-02 3.440457670474703633E+00
pair_coeff 9     44   9.121344727734942426E-02 3.440457670474703633E+00
pair_coeff 10     44   9.121344727734942426E-02 3.440457670474703633E+00
pair_coeff 11     44   9.121344727734942426E-02 3.440457670474703633E+00
pair_coeff 12      44   6.006149585721085732E-02 3.676278959205930619E+00
pair_coeff 13    44   9.537731641064108729E-03 5.005677781603687038E+00
pair_coeff 14    44   3.512749298213131699E-02 4.352230508580356094E+00
pair_coeff 15    44   7.306635652965057237E-02 3.919340305384166889E+00
pair_coeff 16    44   1.061905002323981356E-01 3.760888810862612175E+00
pair_coeff 17    44   1.281877228920814960E-01 3.741790038931789741E+00
pair_coeff 18   44   7.894630627842579018E-02 3.863263336867006181E+00
pair_coeff 19    44   8.084908897847854770E-02 3.757512147015167780E+00
pair_coeff 20     44   3.923548397794881376E-02 2.992827190399418136E+00
pair_coeff 21      44   0.000000000000000000E+00 0.000000000000000000E+00
pair_coeff 22    44   0.000000000000000000E+00 0.000000000000000000E+00
pair_coeff 23      44   1.574290590790217992E-01 3.533117597747393646E+00
pair_coeff 24   44   3.330755342032887256E-01 2.393804074470089471E+00
pair_coeff 25   44   3.330755342032887256E-01 2.393804074470089471E+00
pair_coeff 26     44   0.000000000000000000E+00 0.000000000000000000E+00
pair_coeff 27   44   2.454186650227814237E-01 2.518804491957598035E+00
pair_coeff 28   44   6.376275916443908953E-02 2.701080629836012825E+00
pair_coeff 29   44   8.119081068730508999E-02 3.258283751802188988E+00
pair_coeff 30     44   1.138301662092522648E-01 3.587256491649024159E+00
pair_coeff 31      44   7.699933011103650415E-02 3.330991777931932241E+00
pair_coeff 32     44   1.277785420311642051E-01 3.618667028575163869E+00
pair_coeff 33     44   1.948664597630800355E-01 3.711840997978461676E+00
pair_coeff 34   44   1.150137601108388863E-01 3.686560557731444199E+00
pair_coeff 35   44   8.457116613851239917E-02 3.462582207945594348E+00
pair_coeff 36    44   1.665216242115909184E-02 3.432052267820347335E+00
pair_coeff 37    44   9.392724802379077975E-02 3.931514247848511001E+00
pair_coeff 38   44   7.440178263794279545E-02 3.582105712547747789E+00
pair_coeff 39  44   1.276559035272747666E-01 3.603087912685470684E+00
pair_coeff 40   44   3.278034626379167787E-02 2.882853973116679569E+00
pair_coeff 41  44   1.298797826027309477E-01 3.665368466287981519E+00
pair_coeff 42  44   1.061905002323981356E-01 3.760888810862612175E+00
pair_coeff 43  44   1.493431533973610947E-01 3.150477893680148966E+00
pair_coeff 44   44   5.440873251526867627E-02 3.773904045424884668E+00
pair_coeff 1      45  2.876124418215142975E-01 3.084725325848334254E+00
pair_coeff 2     45  3.340058550940822601E-01 3.008791526102005953E+00
pair_coeff 3     45  2.614658562013765786E-01 3.134117539883036763E+00
pair_coeff 4     45  2.614658562013765786E-01 3.134117539883036763E+00
pair_coeff 5     45  2.050531896125046272E-01 3.303605172335025486E+00
pair_coeff 6      45  2.034109724621096793E-01 3.288346689130147382E+00
pair_coeff 7     45  2.034109724621096793E-01 3.288346689130147382E+00
pair_coeff 8     45  2.034109724621096793E-01 3.288346689130147382E+00
pair_coeff 9     45  2.034109724621096793E-01 3.288346689130147382E+00
pair_coeff 10     45  2.034109724621096793E-01 3.288346689130147382E+00
pair_coeff 11     45  2.034109724621096793E-01 3.288346689130147382E+00
pair_coeff 12      45  1.339404182663543053E-01 3.513741746503062924E+00
pair_coeff 13    45  2.126966281947830981E-02 4.784364621384128213E+00
pair_coeff 14    45  7.833622915187883617E-02 4.159807837788846996E+00
pair_coeff 15    45  1.629419683127158180E-01 3.746056760816388831E+00
pair_coeff 16    45  2.368106190837268310E-01 3.594610791325419719E+00
pair_coeff 17    45  2.858656278157876152E-01 3.576356422441845595E+00
pair_coeff 18   45  1.760545776058381751E-01 3.692459091139371985E+00
pair_coeff 19    45  1.802978870185932558E-01 3.591383417979618908E+00
pair_coeff 20     45  8.749727358411062139E-02 2.860507038684394931E+00
pair_coeff 21      45  0.000000000000000000E+00 0.000000000000000000E+00
pair_coeff 22    45  0.000000000000000000E+00 0.000000000000000000E+00
pair_coeff 23      45  3.510754056218069463E-01 3.376909896193278637E+00
pair_coeff 24   45  7.427766446499820541E-01 2.287968188146278781E+00
pair_coeff 25   45  7.427766446499820541E-01 2.287968188146278781E+00
pair_coeff 26     45  0.000000000000000000E+00 0.000000000000000000E+00
pair_coeff 27   45  5.472970357193517321E-01 2.407442033882686516E+00
pair_coeff 28   45  1.421944377243884450E-01 2.581659301440933696E+00
pair_coeff 29   45  1.810599451051872477E-01 3.114227121418688515E+00
pair_coeff 30     45  2.538474917381768337E-01 3.428655178235952672E+00
pair_coeff 31      45  1.717127143456437521E-01 3.183720549298572955E+00
pair_coeff 32     45  2.849531321332268163E-01 3.458676979111828587E+00
pair_coeff 33     45  4.345628551909777593E-01 3.547731501255731335E+00
pair_coeff 34   45  2.564869708249599145E-01 3.523568770611071432E+00
pair_coeff 35   45  1.885983225059109647E-01 3.309493047117717079E+00
pair_coeff 36    45  3.713523227979241559E-02 3.280312909721536219E+00
pair_coeff 37    45  2.094628964423923267E-01 3.757692463746214351E+00
pair_coeff 38   45  1.659200415184466093E-01 3.423732127576304407E+00
pair_coeff 39  45  2.846796415670648783E-01 3.443786653735909642E+00
pair_coeff 40   45  7.310196369278490480E-02 2.755396004170551638E+00
pair_coeff 41  45  2.896390134456565679E-01 3.503313632949622392E+00
pair_coeff 42  45  2.368106190837268310E-01 3.594610791325419719E+00
pair_coeff 43  45  3.330433940375682744E-01 3.011187621858291141E+00
pair_coeff 44   45  1.213344470767514366E-01 3.607050590788261513E+00
pair_coeff 45  45  2.705824481996443320E-01 3.447574132224956678E+00
pair_coeff 1      46   1.591939588900956049E-01 2.914305969007454422E+00
pair_coeff 2     46   1.848727893277152534E-01 2.842567223260527687E+00
pair_coeff 3     46   1.297424277832890105E-01 3.015383630983031082E+00
pair_coeff 4     46   1.447217808091778302E-01 2.960969450834395111E+00
pair_coeff 5     46   1.134972772065044738E-01 3.121093535396749274E+00
pair_coeff 6      46   8.825115390810175930E-02 3.235378250992776650E+00
pair_coeff 7     46   7.620977424152966528E-02 3.315456605363892528E+00
[...]
   3562500   301.31725     -53831.163      9503.9334     -33550.094      1386.7075      122858.49    
   3565000   303.27937     -53761.686      9477.9508     -33436.421      570.40683      123072.78    
   3567500   301.14635     -53736.833      9467.835      -33497.975     -170.50793      123583.53    
   3570000   296.92445     -53766.459      9449.8233     -33696.616      418.93219      123206.8     
   3572500   298.76725     -53738.309      9557.7187     -33494.66      -778.19511      123414.62    
   3575000   297.8514      -53788.345      9451.1083     -33684.063      472.83396      123098.57    
   3577500   296.15403     -53695.224      9474.8272     -33627.933      657.66588      123307.8     
   3580000   300.11415     -53781.735      9476.2373     -33571.393     -150.64375      122862.11    
   3582500   295.09259     -53802.42       9546.7189     -33701.201      292.23086      123025.38    
   3585000   300.24197     -53751.008      9556.5529     -33455.779      290.72246      123268.58    
   3587500   299.14531     -53770.467      9530.6262     -33540.388     -287.24231      123444.15    
   3590000   301.58302     -53709.567      9544.4731     -33378.453      275.04873      123789.88    
   3592500   301.18858     -53816.307      9570.7767     -33472.997      523.64909      123069.5     
   3595000   300.48418     -53762.568      9554.2763     -33460.953     -647.6382       123411.22    
   3597500   305.97335     -53827.182      9577.2917     -33306.221      429.93509      122862.45    
   3600000   299.25271     -53713.397      9658.153      -33351.95       17.703228      123590.5     
   3602500   297.35479     -53739.001      9461.5558     -33642.034      1015.9098      122807.26    
   3605000   294.54348     -53764.001      9500.5377     -33728.603     -787.87145      123434.54    
   3607500   297.21551     -53691.794      9525.6897     -33535.675      491.72148      123424.43    
   3610000   300.89094     -53781.895      9442.7013     -33577.306     -392.47887      123352.58    
   3612500   305.87373     -53748.173      9538.1645     -33269.902      1109.6471      122940.49    
   3615000   301.82098     -53781.497      9592.3372     -33394.007      102.36434      123013.63    
   3617500   295.06145     -53691.224      9486.2342     -33651.604     -622.53472      123528.77    
   3620000   297.02252     -53665.81       9523.7107     -33518.572      721.51031      123463.03    
   3622500   297.98887     -53680.398      9509.7033     -33512.604      570.54886      123301.77    
   3625000   301.27761     -53727.4        9572.3531     -33379.329      1027.1357      123446.57    
   3627500   304.48578     -53735.687      9480.1016     -33365.122     -318.78299      123266.66    
   3630000   300.98583     -53748.846      9608.5363     -33375.028      598.74538      122982.32    
   3632500   298.09382     -53690.205      9471.4478     -33556.913     -808.04814      123275.15    
   3635000   300.34827     -53738.37       9534.8692     -33461.022     -186.73863      123342.7     
   3637500   300.19614     -53661.172      9570.4775     -33353.658     -64.128923      123526.82    
   3640000   302.69759     -53722.616      9527.29       -33368.82       705.14581      123523.59    
   3642500   299.92748     -53720.503      9579.829      -33413.246     -705.94431      123320.16    
   3645000   299.32572     -53825.991      9556.965      -33563.121     -146.51404      123053.5     
   3647500   296.54472     -53821.016      9586.3978     -33628.18       146.45331      122884.84    
   3650000   300.72812     -53813.261      9683.6981     -33373.499      832.93846      122663.37    
   3652500   301.04903     -53755.46       9439.6342     -33548.284     -389.1397       123256.84    
   3655000   299.24932     -53798.177      9600.0898     -33494.915      50.956512      122885.47    
   3657500   304.90328     -53807.138      9531.5772     -33370.164      133.62664      123017.48    
   3660000   299.93484     -53819.081      9500.71       -33590.679      813.24523      122830.68    
   3662500   293.5271      -53706.593      9481.1132     -33726.972     -472.51949      123627.96    
   3665000   298.80442     -53765.194      9534.0748     -33543.859      412.19615      123336.08    
   3667500   299.42377     -53729.089      9474.806      -33544.871      683.21625      123029.58    
   3670000   297.17457     -53774.843      9578.55       -33567.328      154.17788      122845.39    
   3672500   302.07738     -53717.108      9595.3959     -33317.39      -288.10438      123431.52    
   3675000   299.15295     -53754.173      9568.2966     -33486.151      259.54917      123582.55    
   3677500   300.48286     -53790.232      9425.8548     -33617.085     -260.37411      123211       
   3680000   297.20376     -53757.731      9488.7629     -33638.959      312.97611      123043.67    
   3682500   300.52877     -53829.403      9432.4699     -33647.999      269.0441       123161.82    
   3685000   300.32916     -53817.153      9533.1651     -33542.193     -202.93995      123372.84    
   3687500   303.06171     -53820.712      9516.153      -33465.03      -454.86033      123084.11    
   3690000   299.13131     -53711.591      9341.5277     -33671.112      450.24587      123244.81    
   3692500   298.95205     -53724.842      9606.9607     -33425.341      73.505847      123018.23    
   3695000   300.87352     -53714.705      9504.3504     -33449.09      -1381.6434      123295.43    
   3697500   298.46993     -53742.38       9578.7608     -33488.322      39.050182      123304.05    
   3700000   297.39431     -53726.457      9429.6786     -33659.954     -533.76793      123130.93    
   3702500   300.1287      -53757.052      9626.4727     -33395.954     -257.06845      122957.1     
   3705000   297.54949     -53660.556      9639.4044     -33378.776     -119.30973      123301.76    
   3707500   303.54883     -53708.877      9524.5937     -33327.332     -59.0393        123350.44    
   3710000   299.50773     -53727.746      9478.6568     -33536.674      73.096223      123308.01    
   3712500   301.71752     -53698.935      9462.2555     -33445.227     -19.685408      123362.37    
   3715000   298.34765     -53715.287      9682.4455     -33361.918     -484.49075      123039.1     
   3717500   298.75351     -53635.115      9517.8553     -33431.821     -389.33352      123187.29    
   3720000   300.85825     -53739.376      9488.8903     -33489.767     -56.683162      123334.85    
   3722500   298.46535     -53719.487      9491.9675     -33552.387      349.04776      123299.46    
   3725000   299.58046     -53643.918      9501.7403     -33427.161     -732.92479      124095.15    
   3727500   300.11352     -53592.984      9493.8677     -33365.034      172.65552      123906.89    
   3730000   303.43188     -53539.308      9543.6345     -33142.905     -539.94491      123992.55    
   3732500   300.36605     -53669.168      9417.8161     -33508.237      621.42172      123580.79    
   3735000   300.42557     -53738.722      9434.2107     -33559.268     -394.22564      123310.08    
   3737500   296.93586     -53675.619      9459.8277     -33595.364      1852.1285      123333       
   3740000   300.89204     -53651.852      9428.1646     -33461.76      -434.0374       124004.29    
   3742500   302.57884     -53741.093      9546.1906     -33372.644     -373.89816      123893.73    
   3745000   301.2336      -53751.549      9566.0072     -33411.398      148.55345      123211.37    
   3747500   300.19147     -53722.675      9537.9763     -33447.828     -218.06044      123232.57    
   3750000   300.92079     -53646.457      9535.0516     -33348.449      205.18324      123602.87    
   3752500   302.97193     -53767.182      9574.8591     -33356.005      334.37382      123571.86    
   3755000   301.77929     -53739.62       9592.4428     -33353.516     -464.72353      123582.36    
   3757500   301.35724     -53727.774      9609.7528     -33339.455     -465.42807      123316.99    
   3760000   299.19182     -53837.462      9456.0049     -33680.341      41.181682      123112.63    
   3762500   302.07402     -53773.534      9525.4707     -33443.861     -322.56774      123513.08    
   3765000   298.96553     -53739.734      9409.2348     -33637.477      639.39506      123326.49    
   3767500   298.84411     -53681.439      9587.7353     -33405.024      203.84198      123492.04    
   3770000   300.63863     -53698.174      9457.7607     -33487.55      -904.39803      123527.15    
   3772500   296.73889     -53754.624      9441.7809     -33699.461     -271.57923      123596.7     
   3775000   298.33423     -53716.204      9563.4678     -33482.293     -350.85344      123534.94    
   3777500   302.80552     -53735.003      9553.3108     -33351.326     -195.92744      123299.52    
   3780000   303.79274     -53770.021      9570.4216     -33333.923     -79.849618      123041.55    
   3782500   299.53634     -53726.86       9504.3305     -33509.092      303.79311      122910.19    
   3785000   299.93771     -53778.16       9617.0316     -33433.334      450.56683      123439.13    
   3787500   296.13928     -53767.996      9495.2412     -33680.818     -830.81239      123391.8     
   3790000   299.42385     -53813.034      9486.8864     -33616.733      1759.124       122704.57    
   3792500   298.56813     -53693.77       9484.5004     -33530.461      56.110608      123477.2     
   3795000   297.99576     -53770.572      9617.4829     -33494.752     -401.41837      123007.01    
   3797500   300.6834      -53741.197      9509.8538     -33476.878      590.85078      123212.66    
   3800000   301.74651     -53734.565      9565.9165     -33376.159     -269.57387      123289.03    
   3802500   297.64593     -53744.14       9537.3174     -33560.998     -141.18719      123125.36    
   3805000   298.8241      -53731.434      9539.2245     -33504.245      499.52343      122901.89    
   3807500   299.03542     -53706.886      9676.9857     -33334.378     -994.20367      123438.51    
   3810000   299.11804     -53728.316      9638.0693     -33391.77      -1148.2313      123750.96    
   3812500   297.45946     -53706.089      9388.8969     -33678.038      206.78186      123149.95    
   3815000   299.98078     -53674.528      9606.0955     -33339.098      1.3121399      123434.66    
   3817500   301.31344     -53655.586      9477.0175     -33401.569     -166.68789      123693.71    
   3820000   299.75851     -53660.903      9507.7335     -33431.785      598.6873       123358.75    
   3822500   299.56717     -53702.47       9465.2244     -33522.704      5.8997959      123311.66    
   3825000   298.75687     -53685.104      9567.1864     -33432.358      56.804571      123698.15    
   3827500   298.55674     -53777.599      9497.9889     -33601.209     -107.4153       123116.2     
   3830000   301.10754     -53671.268      9522.7542     -33378.879      270.8476       123581.66    
   3832500   293.09835     -53727.623      9446.8251     -33797.626      237.4163       123258.52    
   3835000   299.66321     -53722.694      9557.4503     -33447.267     -16.044904      123100.13    
   3837500   300.87887     -53670.408      9470.2233     -33438.729     -255.9645       123399.36    
   3840000   299.63501     -53776.295      9457.5397     -33601.788      138.23689      123265.6     
   3842500   298.64053     -53820.365      9560.9171     -33578.05      -330.92673      122947.76    
   3845000   301.99606     -53775.024      9417.5109     -33556.098      574.77231      123074.41    
   3847500   298.49407     -53772.448      9583.5262     -33512.762     -674.48124      123055.24    
   3850000   302.15526     -53787.824      9652.7297     -33327.986     -748.33579      123026.42    
   3852500   298.52189     -53714.188      9504.3337     -33532.7       -343.32266      123096.48    
   3855000   302.33197     -53709.093      9636.5781     -33259.086      84.1413        123224.05    
   3857500   305.69189     -53642.535      9513.5194     -33195.414     -11.195567      123636       
   3860000   297.588       -53783.491      9465.1461     -33674.593     -64.467235      123600.01    
   3862500   297.84264     -53742.357      9484.1048     -33605.392      121.3888       123178.39    
   3865000   296.18209     -53736.885      9621.1383     -33522.28      -635.40185      123199.03    
   3867500   298.71653     -53737.857      9522.7864     -33530.955     -77.364969      123283.95    
   3870000   301.41136     -53696.04       9568.0927     -33347.446      341.33901      123392.74    
   3872500   303.95995     -53675.206      9452.9842     -33350.565      328.61338      123177.11    
   3875000   299.60191     -53680.141      9410.159      -33554.198      310.94569      123837.19    
   3877500   300.10784     -53704.685      9523.0351     -33447.771      568.55544      123581.52    
   3880000   297.60558     -53742.309      9681.0415     -33416.886      20.299103      123243.57    
   3882500   301.58861     -53786.03       9522.5555     -33476.634     -77.160111      123338.54    
   3885000   297.12618     -53595.177      9563.7759     -33404.166     -541.16875      123893.1     
   3887500   301.15664     -53679.799      9443.3418     -33465.066      93.467358      123259.18    
   3890000   299.22108     -53757.292      9519.4128     -33535.717      37.281634      123219.26    
   3892500   300.57849     -53706.698      9407.7321     -33548.253     -1032.7137      123581.38    
   3895000   298.33148     -53750.267      9395.0039     -33684.918     -99.268499      123001.6     
   3897500   300.16708     -53756.74       9432.9668     -33587.776      1017.0456      122661.77    
   3900000   300.39507     -53702.628      9489.0696     -33469.407      460.89267      123402.66    
   3902500   301.19149     -53806.482      9526.2129     -33507.631     -69.934331      122994.84    
   3905000   300.11854     -53774.318      9510.7099     -33529.347     -305.27779      123052.42    
   3907500   298.25121     -53730.352      9408.9685     -33653.911     -561.57253      123468.85    
   3910000   305.35906     -53789.786      9425.3675     -33442.721      543.12353      122932.9     
   3912500   302.14035     -53782.081      9486.1441     -33489.362     -494.07609      123295.9     
   3915000   300.51714     -53729.948      9478.2423     -33503.188      499.90488      123295.57    
   3917500   299.6524      -53827.83       9512.138      -33598.103     -145.36108      122842.45    
   3920000   300.72704     -53705.189      9525.533      -33423.63       685.07359      123452.35    
   3922500   299.57784     -53611.885      9532.9879     -33363.975     -749.43019      123879.03    
   3925000   301.16849     -53725.866      9565.1669     -33388.885      880.5069       123109.67    
   3927500   300.22415     -53704.802      9565.2064     -33401.557      377.29665      123644.19    
   3930000   300.22575     -53593.144      9585.1137     -33269.934     -772.67065      124178.5     
   3932500   302.23949     -53671.671      9532.2883     -33329.261      731.31358      123521.12    
   3935000   302.28913     -53651.392      9432.1742     -33407.321      649.78997      123503.78    
   3937500   302.59702     -53552          9579.6797     -33149.411     -458.511        124189.78    
   3940000   299.10634     -53682.599      9502.5986     -33481.942      165.57952      123595.27    
   3942500   297.71564     -53617.704      9580.9016     -33388.485      872.58845      123823.39    
   3945000   297.64607     -53700.498      9547.6377     -33507.031      723.00969      123552.33    
   3947500   297.11924     -53676.857      9516.7946     -33533.075      417.84812      123278.48    
   3950000   296.99111     -53599.973      9512.42       -33465.149      362.91133      123977.05    
   3952500   296.35171     -53696.284      9469.9319     -33626.817      252.83407      123393.82    
   3955000   304.30116     -53713.39       9518.8966     -33310.633     -230.10029      123679.93    
   3957500   299.66031     -53669.583      9657.571      -33294.139     -14.368797      123396.96    
   3960000   297.06879     -53696.745      9488.1915     -33583.372      455.22861      123169.81    
   3962500   300.96011     -53706.973      9613.6283     -33328.983     -25.09768       123090.51    
   3965000   299.26536     -53746.71       9460.2794     -33582.684      510.21457      123306.61    
   3967500   299.05088     -53766.983      9406.2964     -33664.612      527.42113      122880.72    
   3970000   304.81213     -53716.363      9507.2514     -33306.976     -348.89851      123510.9     
   3972500   300.44505     -53770.121      9472.8309     -33551.35       19.451926      123158.12    
   3975000   297.10235     -53783.465      9576.9712     -33580.111      528.95509      123348.4     
   3977500   302.54544     -53765.397      9515.4052     -33428.928      538.5723       123363.88    
   3980000   300.84885     -53742.712      9636.9433     -33345.387     -653.97608      123171.63    
   3982500   299.68901     -53827.672      9498.3294     -33610.443     -74.927679      122738.02    
   3985000   300.92471     -53707.496      9641.0495     -33303.351     -24.893143      123145.49    
   3987500   301.59112     -53696.292      9573.2584     -33336.103     -1355.9939      123403.89    
   3990000   297.16171     -53710.037      9499.8309     -33581.7       -1070.2324      123226.72    
   3992500   297.80051     -53749.678      9506.4725     -33591.852     -349.49557      123104.01    
   3995000   298.75546     -53773.429      9528.7557     -33559.164      238.83882      122894.55    
   3997500   298.86831     -53726.113      9581.7602     -33454.807      298.59524      123259.3     
   4000000   301.24974     -53723.629      9600.8925     -33348.016      282.3616       123154.21    
Loop time of 32084.8 on 16 procs for 4000000 steps with 12000 atoms

Performance: 5.386 ns/day, 4.456 hours/ns, 124.669 timesteps/s, 1.496 Matom-step/s
100.0% CPU use with 16 MPI tasks x 1 OpenMP threads

MPI task timing breakdown:
Section |  min time  |  avg time  |  max time  |%varavg| %total
---------------------------------------------------------------
Pair    | 23201      | 24690      | 26177      | 526.5 | 76.95
Bond    | 711.01     | 748.13     | 775.92     |  62.2 |  2.33
Kspace  | 1954.8     | 3459.6     | 4964.9     |1421.0 | 10.78
Neigh   | 1022.9     | 1023.2     | 1023.8     |   0.8 |  3.19
Comm    | 1742.8     | 1756.2     | 1770.4     |  18.4 |  5.47
Output  | 0.075823   | 0.078864   | 0.11396    |   3.2 |  0.00
Modify  | 265.61     | 319.16     | 347.2      | 139.9 |  0.99
Other   |            | 88.14      |            |       |  0.27

Nlocal:            750 ave         765 max         729 min
Histogram: 1 0 0 1 5 1 2 3 2 1
Nghost:        10274.8 ave       10312 max       10228 min
Histogram: 1 1 2 1 2 1 2 3 0 3
Neighs:         419890 ave      449303 max      398297 min
Histogram: 2 0 2 4 4 1 1 1 0 1

Total # of neighbors = 6718245
Ave neighs/atom = 559.85375
Ave special neighs/atom = 8.1666667
Neighbor list builds = 90879
Dangerous builds = 0


write_data   system_equilibrated_aftercooling_stable_2.data
System init for write_data ...
PPPM initialization ...
  using 12-bit tables for long-range coulomb (src/kspace.cpp:342)
  G vector (1/distance) = 0.19340304
  grid = 15 15 15
  stencil order = 5
  estimated absolute RMS force accuracy = 0.028021456
  estimated relative force accuracy = 8.4385781e-05
  using double precision FFTW3
  3d grid and FFT values/proc = 1690 256
Generated 0 of 2346 mixed pair_coeff terms from geometric mixing rule
WARNING: Not all mixed pair coeffs generated from mixing. Use write_data with 'pair ij' option to store all pair coeffs. (src/write_data.cpp:326)


Total wall time: 8:54:45
