LAMMPS data file via write_data, version 2 Aug 2023, timestep = 1000000, units = real

12000 atoms
69 atom types
11500 bonds
258 bond types
19500 angles
165 angle types
20500 dihedrals
47 dihedral types
2500 impropers
5 improper types

0.12366332001029434 50.39 xlo xhi
0.12366332001029434 50.39 ylo yhi
0.12366332001029434 50.39 zlo zhi

Masses

1 15.9994
2 15.9994
3 15.9994
4 15.9994
5 15.9994
6 14.0067
7 14.0067
8 14.0067
9 14.0067
10 14.0067
11 14.0067
12 12.011
13 12.011
14 13.019
15 14.027
16 15.035
17 16.043
18 14.027
19 12.011
20 1.008
21 1.008
22 1
23 32.06
24 63.546
25 63.546
26 55.847
27 65.37
28 24.305
29 40.08
30 39.948
31 18.9984
32 35.453
33 79.904
34 12.011
35 15.9994
36 22.9898
37 35.453
38 12.011
39 35.453
40 1.008
41 32.06
42 12.011
43 15.9994
44 12.011
45 35.453
46 18.9984
47 12.011
48 13.019
49 15.9994
50 12.011
51 15.9994
52 14.0067
53 15.035
54 126.90447
55 35.453
56 10.811
57 78.95999999999999
58 1.008
59 35.453
60 79.904
61 15.9994
62 14.0067
63 12.011
64 12.011
65 14.0067
66 14.0067
67 15.9994
68 28.08
69 30.9738

Pair Coeffs # lj/cut/coul/long

1 0.305714 2.76007
2 0.412295 2.62585
3 0.203061 2.95484
4 0.252656 2.84916
5 0.155394 3.16565
6 0.152915 3.13647
7 0.0700622 3.5722
8 0.152915 3.13647
9 0.104651 3.34113
10 0.152915 3.13647
11 0.152915 3.13647
12 0.0663015 3.58118
13 0.00167194 6.63949
14 0.0226791 5.01918
15 0.098122 4.07038
16 0.207254 3.74792
17 0.302012 3.70995
18 0.11455 3.95474
19 0.120138 3.74119
20 0.0282937 2.37341
21 0 0
22 0 0
23 0.455513 3.30769
24 2.039 1.5184
25 2.039 1.5184
26 0 0
27 1.107 1.68112
28 0.0747249 1.93323
29 0.121156 2.81311
30 0.238148 3.40984
31 0.10897 2.94006
32 0.300087 3.46982
33 0.69792 3.6508
34 0.243126 3.60124
35 0.131455 3.17694
36 0.00509651 3.12117
37 0.162149 4.09571
38 0.101741 3.40006
39 0.299511 3.44
40 0.0197496 2.20219
41 0.310038 3.55995
42 0.207254 3.74792
43 0.409923 2.63004
44 0.0544087 3.7739
45 0.270582 3.44757
46 0.0828967 3.07717
47 0.0970049 3.3611
48 0.117014 3.91992
49 0.203061 2.95484
50 0.105027 3.74991
51 0.210013 2.95998
52 0.169966 3.25006
53 0.207254 3.74792
54 0.836845 3.84961
55 0.329921 3.26983
56 0.0663015 3.58118
57 0.455513 3.30769
58 0 0
59 0.329921 3.26983
60 0.580843 3.89995
61 0.119432 3.40025
62 0.1399 3.9019
63 0.0734574 3.52053
64 0.245018 2.81144
65 0.142655 4.06776
66 0.219779 3.64529
67 0.119497 3.1
68 0.584786 3.38557
69 0.584786 3.38557

Bond Coeffs # harmonic

1 375.239 1
2 446.941 1
3 349.274 1.09
4 1109.29 1.12
5 600.242 1.23
6 500.418 1.25
7 499.732 1.32
8 375.003 1.33
9 448.144 1.33
10 498.877 1.33
11 450.617 1.34
12 502.116 1.34
13 450.906 1.36
14 500.679 1.38
15 399.904 1.39
16 498.726 1.39
17 400.057 1.4
18 399.792 1.43
19 450.132 1.43
20 300.222 1.435
21 449.843 1.47
22 299.976 1.48
23 399.968 1.48
24 450.226 1.48
25 450.108 1.5
26 299.844 1.52
27 400.034 1.53
28 299.851 1.61
29 299.727 1.63
30 205.976 1.78
31 449.816 1.78
32 449.828 1.83
33 300.045 1.87
34 59.9679 1.98
35 60.0382 2
36 500.307 2.04
37 63.0357 2.21
38 554.493 1
39 349.928 1.1
40 599.794 1.758
41 449.829 1.53
42 444.341 1.93799
43 599.679 1.76
44 501.026 1.265
45 448.656 1.35
46 555.129 1.63299
47 350.249 2.33839
48 600.161 2.90283
49 445.884 2.79388
50 443.815 2.91189
51 409.328 2.077
52 600.173 2.87407
53 88.4321 1.1
54 56.1663 1.84
55 513.862 1.01
56 310.707 1.41
57 442.161 1.02
58 239.006 1.46
59 513.862 1.29
60 442.161 0.972
61 812.62 1.22
62 466.061 1.22
63 239.006 1.54
64 179.254 1.56
65 227.055 1.54
66 106.358 1.76
67 131.453 1.69
68 203.155 1.75
69 203.155 1.51
70 143.403 1.57
71 179.254 0.971
72 191.205 1.5
73 262.906 1.45
74 549.713 1.52
75 83.652 1.03
76 191.205 1.74
77 191.205 1.72
78 227.055 1.64
79 203.155 1.67
80 191.205 1.66
81 215.105 1.65
82 513.862 1.31
83 155.354 1.01
84 35.8509 1.89
85 101.577 1.93
86 155.354 1.36
87 167.304 1.79
88 114.723 1.35
89 155.354 1.39
90 203.155 1.38
91 227.055 0.983
92 155.354 1.3
93 418.26 1.08
94 155.354 1.9
95 1314.53 1.16
96 143.403 1.8
97 155.354 1.42
98 478.011 0.984
99 119.503 1.08
100 119.503 1.91
101 418.26 1.03
102 525.813 1.28
103 131.453 1.22
104 143.403 1.11
105 1195.03 1.21
106 466.061 1.07
107 956.023 1.21
108 693.117 1.21
109 87.2371 1.85
110 394.359 1.11
111 109.943 2.09
112 131.453 1.82
113 99.1874 1.96
114 56.1663 1.86
115 167.304 1.21
116 167.304 1.28
117 143.403 1.71
118 131.453 1.6
119 454.111 1.21
120 41.826 1.61
121 131.453 1.94
122 155.354 1.59
123 143.403 2.1
124 119.503 2.12
125 57.3614 2.13
126 203.155 1.26
127 1195.03 1.14
128 191.205 1.23
129 788.719 1.3
130 239.006 1.31
131 59.7514 2.04
132 82.457 1.34
133 621.415 0.938
134 310.707 1.16
135 34.6558 2.07
136 60.9465 1.16
137 93.2122 2.16
138 43.021 2.23
139 23.9006 2.05
140 896.272 1.19
141 728.967 1.47
142 394.359 1.57
143 1195.03 1.18
144 54.9713 1.87
145 1063.58 1.17
146 215.105 1.13
147 59.7514 2.02
148 179.254 1.07
149 250.956 1.14
150 155.354 1.06
151 537.763 1.46
152 812.62 1.17
153 92.0172 2.15
154 239.006 1.04
155 60.9465 1.4
156 1314.53 1.11
157 466.061 1.56
158 752.868 1.49
159 501.912 1.54
160 35.8509 2.17
161 35.8509 2.27
162 669.216 1.45
163 764.818 1.25
164 848.47 1.27
165 561.663 1.16
166 1434.03 1.14
167 501.912 1.17
168 537.763 1.19
169 920.172 1.14
170 227.055 1.24
171 1434.03 1.13
172 89.6272 2.91
173 57.3614 2.24
174 418.26 0.743
175 239.006 1.2
176 111.138 2.33
177 96.7973 2.42
178 83.652 1.32
179 1159.18 1.2
180 1314.53 1.2
181 430.21 1.58
182 53.7763 1.47
183 1.55354 2.77
184 5.13862 2.25
185 100.382 2.18
186 50.1912 1.52
187 93.2122 2.19
188 27.4857 1.48
189 1912.05 1.07
190 8.60421 2.8
191 87.2371 2.52
192 0.669216 2.79
193 812.62 1.16
194 1.79254 2.68
195 406.31 1.59
196 119.503 1.18
197 34.6558 2.54
198 1792.54 1.1
199 824.57 1.29
200 33.4608 2.44
201 107.553 2.41
202 112.333 2.36
203 20.3155 1.43
204 2.27055 2.57
205 19.1205 2.47
206 0.764818 2.71
207 1553.54 1.12
208 3.70459 2.75
209 501.912 1.14
210 0.717017 2.86
211 10.5163 2.64
212 1912.05 0.985
213 1.91205 2.61
214 7.40918 2.62
215 59.7514 2.46
216 3.58509 2.66
217 1.31453 2.72
218 58.5564 1.63
219 573.614 1.12
220 37.0459 2.32
221 16.7304 1.44
222 1553.54 1.16
223 7.17017 2.69
224 10.0382 2.49
225 3.22658 2.92
226 0.82457 2.29
227 9.79924 2.4
228 1.03967 2.37
229 1.55354 2.94
230 5.85564 2.95
231 1.67304 2.96
232 0.0131453 2.56
233 5.25813 2.59
234 15.5354 2.38
235 836.52 1.12
236 1.91205 2.5
237 2.39006 2.3
238 585.564 1.04
239 3.34608 2.99
240 0.967973 2.34
241 1.07553 2.98
242 2.27055 2.74
243 1063.58 1.16
244 812.62 1.5
245 1.31453 2.84
246 0.322658 2.82
247 908.222 1.23
248 466.061 1.05
249 3.34608 2.88
250 1434.03 1.18
251 1673.04 1.15
252 6.33365 2.9
253 1027.72 1.24
254 418.26 1.9
255 2270.55 1.08
256 1434.03 1.21
257 764.818 0.975
258 0 0

Angle Coeffs # harmonic

1 45.3116 90
2 50.0917 90
3 47.7712 96
4 54.9551 100
5 47.5559 103
6 55.0345 104
7 50.1709 108
8 30.1731 109.5
9 33.8897 109.5
10 40.2609 109.5
11 45.0394 109.5
12 47.694 109.5
13 55.1272 109.5
14 47.635 109.6
15 55.1139 111
16 55.0997 113
17 4.824 115
18 45.0699 115
19 59.7937 115
20 44.8085 116
21 59.7719 116
22 60.1639 117
23 34.88 120
24 39.8095 120
25 45.1871 120
26 47.4278 120
27 50.1166 120
28 59.9756 120
29 69.8346 120
30 60.0726 121
31 60.091 122
32 34.8146 123
33 59.8929 124
34 30.0075 125
35 60.0779 125
36 44.9139 126
37 49.998 126
38 60.166 126
39 50.1189 132
40 47.5187 155
41 28.4971 180
42 45.9951 109.5
43 52.4767 107.57
44 65.472 111.3
45 55.0189 97.4
46 55.0247 106.75
47 47.5019 108.53
48 65.5335 109.5
49 54.9566 107.6
50 47.4817 109.5
51 54.9931 110.3
52 55.0234 111.4
53 60.044 117.2
54 60.0023 121.4
55 48.24 180
56 180.46 109
57 192.229 106
58 145.153 126
59 145.153 96.2
60 156.922 114
61 203.998 119
62 239.306 130
63 298.152 107
64 156.922 134
65 239.306 101
66 286.382 113
67 368.766 134
68 356.997 119
69 333.459 126
70 251.075 89.6
71 380.536 114
72 286.382 135
73 145.153 88.3
74 133.384 60
75 380.536 179
76 251.075 180
77 470.766 178
78 47.0766 59.9
79 47.0766 60.3
80 251.075 124
81 706.149 118
82 117.691 144
83 627.688 123
84 470.766 118
85 333.459 94.8
86 90.2301 175
87 156.922 82.8
88 117.691 77.6
89 239.306 145
90 251.075 50.8
91 380.536 104
92 262.844 84.4
93 215.768 63.3
94 215.768 61
95 298.152 173
96 192.229 173
97 82.384 50.9
98 431.535 127
99 62.7688 67.8
100 156.922 180
101 588.457 118
102 30.1731 110
103 227.537 94.8
104 431.535 173
105 34.5228 78.5
106 70.6149 138
107 70.6149 168
108 156.922 167
109 18.046 149
110 333.459 144
111 356.997 148
112 321.69 144
113 356.997 148
114 321.69 147
115 333.459 144
116 5099.96 60.8
117 1451.53 68
118 298.152 161
119 156.922 155
120 309.921 154
121 215.768 75.3
122 309.921 64.7
123 549.227 173
124 3334.59 45.8
125 863.071 123
126 549.227 123
127 470.766 166
128 380.536 166
129 203.998 139
130 66.6918 161
131 7.45379 44.9
132 25.1075 84.8
133 192.229 161
134 333.459 70.4
135 627.688 173
136 1.92229 51.6
137 21.5768 73.3
138 7.45379 174
139 470.766 132
140 145.153 69.9
141 15.6922 144
142 1922.29 97.9
143 392.305 155
144 588.457 104
145 117.691 149
146 509.996 157
147 286.382 166
148 333.459 89.8
149 392.305 79.1
150 6669.18 45.2
151 470.766 101
152 745.379 125
153 168.691 49.6
154 509.996 112
155 470.766 107
156 298.152 59.6
157 239.306 70.2
158 3923.05 100
159 3923.05 100
160 1059.22 46.3
161 1176.91 46.3
162 431.535 94.1
163 509.996 69.6
164 470.766 139
165 666.918 132

Dihedral Coeffs # harmonic

1 0.638145 -1 1
2 0.81501 -1 1
3 1.18786 -1 1
4 1.40057 -1 1
5 2.2347 -1 1
6 2.2586 -1 1
7 0.666826 1 1
8 1.27868 1 1
9 0.365679 -1 2
10 1.40057 -1 2
11 1.69933 -1 2
12 3.9914 -1 2
13 5.73614 -1 2
14 8.00669 -1 2
15 9.99044 -1 2
16 0 1 2
17 0.0999044 1 2
18 0.499522 1 2
19 0.750478 1 2
20 1.21654 1 2
21 3.9914 1 2
22 0.250956 1 3
23 0.301147 1 3
24 0.310707 1 3
25 0.604685 1 3
26 0.700287 1 3
27 0.762428 1 3
28 0.872371 1 3
29 0.901052 1 3
30 0.932122 1 3
31 0.999044 1 3
32 1.12094 1 3
33 1.30019 1 3
34 1.41491 1 3
35 1.83795 1 3
36 2.06023 1 3
37 2.27055 1 3
38 0 1 4
39 0.239006 -1 6
40 0.239006 1 6
41 0.901052 1 6
42 0.83652 -1 2
43 0.669216 1 3
44 0.167304 -1 6
45 0.0956023 1 6
46 0.239006 -1 3
47 0 1 1

Improper Coeffs # harmonic

1 20.0075 0
2 40.0151 35.2644
3 80.0302 0
4 20.0075 180
5 40.0151 -35.2644

Atoms # full

11907 982 56 0.652 3.877362906242615 5.417648479813612 3.190120447193893 1 0 0
9017 475 63 -0.2 5.391561411894774 4.618484970130845 8.038707841122294 0 0 1
9018 475 20 0.236 4.309180406256254 4.609370899062055 8.108476199804727 0 0 1
9011 475 62 0.265 6.2086991496066934 4.31123207788167 6.986769636329265 0 0 1
9015 475 63 -0.156 6.228678048717571 4.9447834082883135 9.034815451752934 0 0 1
9014 475 62 0.049 7.547460776204879 4.731854346142516 8.65800655495245 0 0 1
9221 486 63 -0.099 1.0719048826632305 3.846671345707655 10.570639473469138 0 0 0
9220 486 62 0.265 2.334240506601201 4.217585788219749 10.869753102838963 0 0 0
9008 475 64 -0.382 5.653907423372431 3.6465447629569234 5.789388338227786 0 0 1
10807 762 56 0.652 3.204134682201584 1.5171934559144 7.933414009102478 0 0 1
11906 982 31 -0.413 2.6273302255175808 5.838804304518933 2.5880005139410103 1 0 0
11908 982 31 -0.413 3.91055798077599 5.866947578172392 4.503013627809433 1 0 0
11909 982 31 -0.413 4.973319208883267 5.953329828852417 2.513984692460134 1 0 0
9016 475 20 0.236 5.948277649980781 5.517910326687181 9.906844884488514 0 0 1
9012 475 63 -0.099 7.514744201982733 4.454859489631524 7.372233139900892 0 0 1
2162 114 20 0.06900000000000001 2.0833174278750106 3.1812124659976098 4.759589326948853 0 0 0
11910 982 31 -0.413 4.0162656300646615 3.9484490579848326 3.1986698740581176 1 0 0
9009 475 20 0.177 4.789395722372925 4.192240380804441 5.724995872416207 0 0 1
9007 475 20 0.177 5.529033741691459 2.5982982346053634 5.8905538444024845 0 0 1
9224 486 63 -0.156 1.095602334890524 6.047600801485715 10.663796005861764 0 0 0
9010 475 20 0.177 6.338469258892778 3.9354624327554446 4.992903024540775 0 0 1
2160 114 64 0.104 1.0736604887801582 3.584543307269266 4.6770980363658285 0 0 0
4845 255 20 0.074 4.264037308383809 1.571457479641123 2.0917389113696236 0 1 1
9217 486 64 -0.382 3.461047334649242 3.3623742922898634 11.262920364192807 0 0 0
4844 255 20 0.074 5.456590254504623 1.2211385995346684 3.42454837513969 0 1 1
9226 486 63 -0.2 2.3897761410700857 5.58886448494676 10.952428162481285 0 0 0
4842 255 12 -0.186 4.44727588540909 1.0449038421398904 3.0677986891223936 0 1 1
9222 486 20 0.242 0.8553433638668951 2.770603756176978 10.520968755890383 0 0 0
4843 255 20 0.074 3.8584324928058353 1.4850417237794347 3.864414129592152 0 1 1
9223 486 62 0.049 0.2900466019642171 4.9449446461784525 10.386229402562954 0 0 0
10808 762 31 -0.413 4.44839681483056 1.6911627471170596 8.437941791787772 0 0 1
2165 114 20 0.074 1.6431265542655746 5.465722868080803 5.641855865439621 0 0 0
10203 641 31 -0.413 3.6270219534998307 7.599881174254388 8.54143774388652 0 0 0
10809 762 31 -0.413 2.773469480150138 2.535102171746227 7.072066688451946 0 0 1
9225 486 20 0.236 0.6098273586174002 7.00866763681905 10.793689879052755 0 0 0
4084 215 20 0.074 6.4644861620278515 3.9717388464667636 1.7327379346124372 0 0 1
5073 267 20 0.074 7.3364053389076265 1.8540778018213624 11.263790603206061 1 0 0
6754 356 63 -0.156 8.109808591992902 6.262735783221667 2.1944834464025003 0 0 0
9227 486 20 0.236 3.323600335068635 6.07728563945802 11.024459296114031 0 0 0
4081 215 20 0.06900000000000001 7.097005583904158 1.7234272216598872 0.7981701862327459 0 0 1
6755 356 20 0.236 7.6347159727247895 5.874880796294856 3.1003510951076034 0 0 0
77 5 20 0.177 8.394654296306369 8.66777697367915 5.120520826057781 0 0 0
78 5 64 -0.382 7.598569794925043 8.322528804819436 5.739557629516828 0 0 0
80 5 20 0.177 7.342733354940578 7.30253358920366 5.4596122253726564 0 0 0
5923 312 20 0.06900000000000001 0.5676307985308351 7.271714489573859 7.203235432735172 1 1 0
10806 762 31 -0.413 2.2183333333818975 1.4315853164072745 8.988042264171877 0 0 1
2163 114 12 -0.186 0.8501393371600529 4.727759042202844 5.693627947339771 0 0 0
2161 114 20 0.06900000000000001 1.0282849911102314 3.957105572486906 3.6190904400977018 0 0 0
9157 482 20 0.074 23.70686467761739 2.996232341252893 0.17452129107199021 0 1 1
4958 261 20 0.074 5.324677150041224 8.528235280449469 1.812744076762741 1 0 0
9025 475 20 0.074 8.324700824891027 7.039195565188994 9.709390419403785 0 0 1
4083 215 20 0.074 5.039523987857013 3.273479649940209 0.7769766475965346 0 0 1
4082 215 12 -0.186 6.0515458044185095 3.641594470080126 0.7302774934821992 0 0 1
9021 475 20 0.06900000000000001 8.478972852611761 4.587605634199247 10.410876162135088 0 0 1
9219 486 20 0.177 4.385891300412372 3.9657431165204415 11.291056659499398 0 0 0
79 5 20 0.177 7.983176693903864 8.367161382217557 6.764218580882349 0 0 0
9218 486 20 0.177 3.709121300797821 2.5030983583449458 10.610657691797812 0 0 0
4950 261 20 0.236 0.782060179835051 7.963292774075468 2.4276850711247926 1 0 0
5070 267 12 -0.186 6.606413256174566 1.0875782561819 10.942929740976872 1 0 0
9013 475 20 0.242 8.296099809198733 4.30910811368641 6.6860244592888245 0 0 1
9744 549 31 -0.413 7.899294767466663 1.7713754574869263 3.3414720211086135 0 0 1
5071 267 20 0.074 5.8973349388987595 1.6464151788626826 10.401714951920187 1 0 0
11574 915 31 -0.413 1.1911259046790776 2.1089319756422302 0.7180177812331331 0 1 1
6756 356 63 -0.2 7.981527675632239 7.410786244392472 1.5231465173297019 0 0 0
5072 267 20 0.074 6.166937871504894 0.7420929948650483 11.832308429818497 1 0 0
10810 762 31 -0.413 3.1731590232418845 0.3040289952566524 7.2651090250895685 0 0 1
6757 356 20 0.236 7.583283259246681 8.375973315448837 1.864717725838316 0 0 0
9019 475 64 0.104 8.771807665395137 4.924302557339532 9.469257186731424 0 0 1
5062 267 62 0.049 7.7352215354266844 0.5041022584686718 8.822795686302229 1 0 0
6750 356 62 0.265 8.588472534100687 7.273312286136478 0.2514407916983509 0 0 0
919 49 20 0.242 16.905432355318748 0.20385171396579563 12.225501875830519 0 0 0
10201 641 31 -0.413 3.898856171078706 8.245104827265429 10.68758138735109 0 0 0
10599 720 31 -0.413 6.1157597982704885 5.705937178401812 12.171403392612872 0 0 0
9216 486 20 0.177 3.3760288613028098 2.9550485204621957 12.267476706995186 0 0 0
5063 267 63 -0.156 6.951881273210768 0.2614391487588466 7.757249248106632 1 0 0
5065 267 63 -0.2 7.696514267928502 0.6015556816695684 6.635899853452237 1 0 0
4957 261 20 0.074 4.5570722832156445 9.29940575593633 0.43951599904662614 1 0 0
11224 845 31 -0.413 24.755855300689927 0.6778901515570946 1.282707336738322 0 0 0
6902 364 62 0.265 24.380083336572405 24.78273785318902 7.80561745943131 0 0 0
5232 276 20 0.242 18.230776583053178 21.244071623575476 1.3847275785861592 0 0 0
1768 94 20 0.177 2.42183299896583 4.502070158219108 0.4225631925611307 0 0 0
9022 475 12 -0.186 9.184290142997092 6.372089749476221 9.542012206854904 0 0 1
6759 356 20 0.06900000000000001 9.463149601148464 3.4402504596393815 1.1724728182799606 0 0 0
6760 356 20 0.06900000000000001 9.404607134756269 4.0490411237793555 2.8434242794674587 0 0 0
9745 549 31 -0.413 10.158202947153072 1.3488664899554126 2.7029458881760653 0 0 1
9020 475 20 0.06900000000000001 9.56520974099039 4.295529035180113 9.034847898823301 0 0 1
6758 356 64 0.104 9.706575607451589 4.334740393503068 1.7939655390740727 0 0 0
6753 356 62 0.049 8.887894746053158 5.478841303832163 1.3527775390046737 0 0 0
5057 267 20 0.177 9.65042887548902 2.823502579957234 6.2094223037202285 1 0 0
5059 267 62 0.265 8.919504318097184 1.0269141993660265 7.101624355531005 1 0 0
2683 142 20 0.177 12.761599419257518 1.2538378230720975 1.5267745564963653 0 1 0
9023 475 20 0.074 9.954149025146242 6.50548980205105 10.286198770264491 0 0 1
9024 475 20 0.074 9.685435563257665 6.5713030037891365 8.548127152123858 0 0 1
10466 694 31 -0.413 9.863444787424072 1.8696394621541204 11.349992133618153 1 1 1
10953 791 31 -0.413 9.333813578781479 6.198006112409306 5.20503133358403 0 0 0
2686 142 20 0.242 12.53097632651244 2.238747154345087 4.767553386386602 0 1 0
10955 791 31 -0.413 10.650285809363131 5.088203914381915 6.748240318407702 0 0 0
10951 791 31 -0.413 10.690286595036811 4.355480206268529 4.574690803252091 0 0 0
10954 791 31 -0.413 11.655687301177993 6.298839956571197 5.104245708425231 0 0 0
5056 267 64 -0.382 9.908307259795789 1.7626782153011686 6.344184572388198 1 0 0
2688 142 63 -0.156 15.18249820457031 3.7218690226648614 3.7489134044109007 0 1 0
2687 142 62 0.049 14.17559617763412 3.5959326931565205 4.696613984147742 0 1 0
2690 142 63 -0.2 15.086614253817606 2.7519674738186164 2.8112751996066545 0 1 0
2685 142 63 -0.099 13.397175181118582 2.6179472415858576 4.2662127538971815 0 1 0
10952 791 56 0.652 10.591040556410102 5.468575147215984 5.3856814565546856 0 0 0
4738 250 20 0.242 12.798430611843283 6.038735682289198 8.174943594658682 0 0 0
4737 250 63 -0.099 12.683531893318355 6.85530726538175 8.838620493041468 0 0 0
4747 250 12 -0.186 15.150947314844839 5.606896346040958 11.031393784461342 0 0 0
4744 250 64 0.104 13.658240031021045 5.702265685054976 10.86179709461764 0 0 0
4739 250 62 0.049 12.996818606169736 6.860474220724472 10.132781700557123 0 0 0
4745 250 20 0.06900000000000001 13.382252762065896 4.757500872980557 10.371700244768379 0 0 0
2684 142 62 0.265 13.874919572504602 2.143844361668703 3.1018947263040566 0 1 0
10467 694 56 0.652 10.963653021155038 2.7185791858005945 11.226728962439793 1 1 1
4748 250 20 0.074 15.684373973460575 5.9871366743122785 10.133423840441106 0 0 0
10470 694 31 -0.413 10.567461149337193 3.9989768831848744 11.514241885615032 1 1 1
4750 250 20 0.074 15.502482881461702 4.616296685658384 11.357361988236516 0 0 0
4749 250 20 0.074 15.405727312428914 6.335223071965495 11.855963252577853 0 0 0
4740 250 63 -0.156 12.684235244322908 8.068136487572266 10.7218332495955 0 0 0
2689 142 20 0.236 16.179883150265322 4.174784944450101 4.134064475621354 0 1 0
1413 75 20 0.242 12.796532125048863 7.084348846748207 1.9907058992024715 0 1 0
2691 142 20 0.236 15.6781805954316 2.624353503407584 1.9337359134116727 0 1 0
2681 142 64 -0.382 13.28564109280203 0.9657186558263874 2.4025692338925304 0 1 0
10468 694 31 -0.413 11.441775673911028 2.6841385303330907 9.946716205230832 1 1 1
6762 356 20 0.074 11.469150364937455 5.087571954429187 2.595935447107474 0 0 0
2692 142 64 0.104 13.996224239261034 4.496122439973862 5.845558861614149 0 1 0
2693 142 20 0.06900000000000001 12.954370017908133 4.350553808774459 6.150984498287073 0 1 0
6761 356 12 -0.186 11.208511284297858 4.50706593553477 1.7390907293474183 0 0 0
5058 267 20 0.177 10.953587968240665 1.7892192847552981 6.820935762224965 1 0 0
6763 356 20 0.074 11.631597372754664 3.4638465981848308 1.8092653424323144 0 0 0
4736 250 62 0.265 12.137297708752975 8.023971172086895 8.556113709967097 0 0 0
2697 142 20 0.074 14.896918909329198 3.2146366893795317 7.374147909313522 0 1 0
2694 142 20 0.06900000000000001 14.156284075000345 5.533699893523307 5.371454456803082 0 1 0
2695 142 12 -0.186 14.954755676405288 4.16873261588713 6.9589949064589085 0 1 0
2698 142 20 0.074 15.976679027840358 4.245772275173296 6.671020812819958 0 1 0
2696 142 20 0.074 14.831724996662965 4.893197959624172 7.759475270340032 0 1 0
1421 75 20 0.06900000000000001 15.989942365258614 7.018944572580825 3.1372600316324735 0 1 0
922 49 20 0.236 13.250096513272506 1.4414855047760997 10.50249339462176 0 0 0
8195 432 63 -0.099 19.89000198435876 0.23375576823061972 2.7965439607552587 0 1 1
921 49 63 -0.156 14.272176005187504 1.1281018305922363 10.526192667360531 0 0 0
4741 250 20 0.236 12.844079776064197 8.110123249372824 11.80328874660833 0 0 0
8196 432 20 0.242 20.80141631491279 0.2635752741844494 3.384061221226586 0 1 1
10036 608 31 -0.413 16.688394769600244 8.883588259294875 6.471756529853076 0 1 0
4746 250 20 0.06900000000000001 13.142624957425845 5.626209724424754 11.797062787849864 0 0 0
10037 608 56 0.652 16.588160664938673 7.495292260597967 6.637679821782182 0 1 0
9742 549 56 0.652 8.878922851477153 0.8096887028089395 2.9359970080152613 0 0 1
10038 608 31 -0.413 16.260690781688705 6.898820206940667 5.376861675192283 0 1 0
4732 250 20 0.177 10.98075840207462 8.313175688396127 6.785835696893907 0 0 0
4742 250 63 -0.2 12.008341309818073 8.741946832177728 9.739180768847525 0 0 0
2680 142 20 0.177 14.119708646588416 0.36554949614855037 2.047077143317933 0 1 0
1409 75 20 0.177 10.534578278375106 7.587220003799713 3.2849441281867295 0 1 0
5060 267 63 -0.099 8.910950846312103 0.9877799052907928 8.438219916360712 1 0 0
10039 608 31 -0.413 15.600495899057202 7.173119654268635 7.5142720728583035 0 1 0
5061 267 20 0.242 9.67673117786079 1.3411058872224892 9.072891234847315 1 0 0
1420 75 20 0.06900000000000001 15.164143552327628 6.974977804268175 1.5138416606203449 0 1 0
1412 75 63 -0.099 13.090764748434543 7.880422231700254 2.6507385000863533 0 1 0
1419 75 64 0.104 15.510647321321704 7.574975545537169 2.3529174981903638 0 1 0
1414 75 62 0.049 14.319127756639263 8.146722411285527 3.018609698792624 0 1 0
1424 75 20 0.074 15.972440343344767 9.338569938701218 1.2192496257034235 0 1 0
1422 75 12 -0.186 16.4310229524509 8.67283047431968 1.8969289935873146 0 1 0
6616 349 20 0.177 24.06745910269104 12.03984957404319 11.531136176509674 0 0 0
5055 267 20 0.177 10.087172416316346 1.2423776636181922 5.393738479656627 1 0 0
8858 467 20 0.177 23.46221742416858 10.049183094921455 1.0846101281545004 0 0 0
6764 356 20 0.074 11.607683075531169 5.04661018441131 0.8927975269935632 0 0 0
917 49 62 0.265 16.300652044362398 0.22262630696887034 10.219713015228345 0 0 0
2682 142 20 0.177 12.66548232953601 0.36364723304669133 3.062712401127239 0 1 0
10396 680 31 -0.413 11.38983226047614 12.043373317271355 11.912163266847754 0 0 0
8768 462 63 -0.156 2.549674420251051 24.87493875700123 3.6566514631368783 1 0 0
920 49 62 0.049 14.856211229376433 0.8280043081782972 11.745386923001032 0 0 0
9377 494 20 0.236 15.033475650188036 9.216644120972413 11.824603508290211 0 0 0
4959 261 20 0.074 4.218093551227499 7.5496941964227515 0.8824195304810484 1 0 0
11676 936 31 -0.413 13.305028116811618 1.216108910978732 6.987963800750848 0 0 0
916 49 20 0.177 18.215629834141996 0.27096800535700727 9.385124828278832 0 0 0
11225 845 31 -0.413 22.6175578267163 0.9462468737706057 2.0563575396398712 0 0 0
5430 286 20 0.06900000000000001 24.481123610632363 20.100542388686453 7.519990520220105 0 0 0
9379 494 20 0.236 16.169747369055298 8.723627515050953 9.376292351654133 0 0 0
2219 117 20 0.06900000000000001 23.246192425396263 5.910676021817815 0.9987124491711409 0 0 1
3818 201 20 0.074 23.306090651118623 1.7318051590368393 6.9685266991815284 0 0 0
5802 306 20 0.242 24.43881587714643 6.401724072405015 5.714638488233428 0 0 1
9861 573 31 -0.413 17.64623225950585 5.472557842769306 2.409696334472417 0 0 1
11713 943 31 -0.413 18.98691304576608 0.8300495505653194 11.898963072267824 0 0 0
8194 432 62 0.265 18.920300703318183 1.1776195435129482 2.797352165157398 0 1 1
11201 841 31 -0.413 18.42474049341415 0.587324632085749 6.350395242723801 0 1 1
8192 432 20 0.177 17.941600017181358 2.1540929135285736 4.3805373696089625 0 1 1
8190 432 20 0.177 18.523740341082853 3.1713994057888666 2.991436111771172 0 1 1
6436 339 20 0.06900000000000001 23.249528020062844 3.4563181234724443 9.306122569129164 1 1 0
9862 573 56 0.652 18.01212298998037 4.96936723766986 1.1246727983187184 0 0 1
6426 339 20 0.177 18.04093863953428 4.327293326942968 7.046668063630719 1 1 0
6425 339 20 0.177 17.232132111487328 4.955680850185973 8.50011120844143 1 1 0
6423 339 20 0.177 17.428366923418288 3.233125611595434 8.391918699431955 1 1 0
6435 339 64 0.104 22.3627664569505 2.9248671329031204 9.774628196638629 1 1 0
6432 339 20 0.236 22.131027830994196 5.692801047497295 9.625798497534403 1 1 0
5805 306 20 0.236 23.36705064915368 3.0965497823566865 3.2748889514409605 0 0 1
5803 306 62 0.049 23.574058675802004 4.653214798767437 4.790836052167373 0 0 1
5808 306 64 0.104 22.26896407258599 4.422286076280181 5.525653887163822 0 0 1
6434 339 20 0.236 19.818372211554088 6.316897638978713 8.375641426197696 1 1 0
6424 339 64 -0.382 17.91527441860618 4.185804024860452 8.168834868019344 1 1 0
6433 339 63 -0.2 20.014474264954142 5.427501350161704 8.900357812890574 1 1 0
6427 339 62 0.265 19.21978687641059 4.31255630866462 8.966920597162664 1 1 0
6429 339 20 0.242 19.627318839262102 2.313223583030636 9.594254125796507 1 1 0
6428 339 63 -0.099 19.918739996442135 3.322551702040694 9.463432274967797 1 1 0
6430 339 62 0.049 21.1455787047766 3.799987865168958 9.785909049106522 1 1 0
5810 306 20 0.06900000000000001 22.131222339531824 3.366202770895065 5.736949358662895 0 0 1
6431 339 63 -0.156 21.21785629139371 5.1032091832089135 9.398902870319642 1 1 0
5809 306 20 0.06900000000000001 22.477016038118744 4.927948656703102 6.5046235286520595 0 0 1
5811 306 12 -0.186 21.03595848101729 5.024291770092593 4.858594308826414 0 0 1
6437 339 20 0.06900000000000001 22.18546974644171 2.1294008415380343 9.08754553657552 1 1 0
6438 339 12 -0.186 22.708042110248325 2.2543171831677515 11.10029268064816 1 1 0
5813 306 20 0.074 21.03419238864063 4.6549316147324085 3.8271729003636055 0 0 1
6440 339 20 0.074 21.887605715775127 1.6225548445108535 11.49499263186422 1 1 0
5812 306 20 0.074 21.159677357543355 6.124812238223453 4.756682405178258 0 0 1
5814 306 20 0.074 20.0946233362616 4.808344968043385 5.2890974260638455 0 0 1
8191 432 64 -0.382 18.756488874597537 2.3274353074839493 3.604691414412554 0 1 1
8193 432 20 0.177 19.61176124710356 2.5557844661201643 4.1475549761652335 0 1 1
11203 841 31 -0.413 20.09638550143814 2.2033516246548994 6.526611289456541 0 1 1
11116 824 31 -0.413 23.10658647351227 7.635090563047417 8.539124321300617 0 0 1
6061 319 20 0.074 18.79707319577498 7.845228504239411 3.5595021096810604 0 0 0
6059 319 20 0.074 20.271619925293955 8.099492982884833 4.474792073852789 0 0 0
2221 117 20 0.074 21.295246150171472 6.6506061737214965 2.3372512597949764 0 0 1
9865 573 31 -0.413 19.425693789023665 4.678234023445652 1.0412066077336442 0 0 1
9864 573 31 -0.413 17.290662504072337 3.8113158054084004 0.8709307458901059 0 0 1
2220 117 12 -0.186 21.964641185828178 7.428292487463406 2.054195342492862 0 0 1
2222 117 20 0.074 22.60961487192949 7.635548552152081 2.9263316647373343 0 0 1
5804 306 63 -0.156 23.96581039410174 3.8996172887237335 3.7092999844446273 0 0 1
8201 432 20 0.236 17.546482253314675 1.7318195780078607 1.1953491313825575 0 1 1
11202 841 56 0.652 19.774364137772768 0.8527328595123714 6.601668457002378 0 1 1
6439 339 20 0.074 22.7838359303598 2.9260952940212674 11.90323223377959 1 1 0
924 49 20 0.236 15.100205779933855 0.9434607070847914 8.51870179618217 0 0 0
6441 339 20 0.074 23.622320473410916 1.6478907360410002 11.015937325597665 1 1 0
11715 943 31 -0.413 18.773424494846587 3.0552617235006903 12.25881310021293 0 0 0
8200 432 63 -0.2 18.07817925289715 0.9323283180039101 1.709926603523708 0 1 1
3816 201 12 -0.186 23.46224375735535 0.6779599550363555 6.665098541277067 0 0 0
2217 117 64 0.104 22.880050350014642 6.978942493121232 0.8915905781145284 0 0 1
11119 824 31 -0.413 21.248354911532005 8.625986127561452 7.569422312208194 0 0 1
11197 840 56 0.652 0.1237196865132617 21.03337916639474 5.019088392228475 1 0 0
10040 608 31 -0.413 17.77305629557899 6.983244607658803 7.171535206007614 0 1 0
2218 117 20 0.06900000000000001 23.729230087519486 7.654429131211295 0.7230896148002512 0 0 1
6058 319 12 -0.186 19.272269625424265 8.42298789263159 4.353945530139526 0 0 0
1423 75 20 0.074 17.383675622706527 8.289068618496762 1.3712264444773672 0 1 0
11118 824 31 -0.413 21.246037206425363 7.911466685067299 9.750166122436626 0 0 1
11117 824 56 0.652 21.992938252057503 8.462635816445575 8.725135760058794 0 0 1
5801 306 63 -0.099 24.464767605531016 5.659286984038654 4.876961766619048 0 0 1
11222 845 56 0.652 23.894198252409232 0.353141095986849 2.277360270848177 0 0 0
11205 841 31 -0.413 20.072579510404815 0.46730399416934393 7.932296736571182 0 1 1
9376 494 63 -0.156 16.05979212345518 9.18691690721105 11.5222912075765 0 0 0
9378 494 63 -0.2 16.58196661700487 8.992238952467169 10.287588832530181 0 0 0