LAMMPS data file via write_data, version 2 Aug 2023, timestep = 2000000, units = real

12000 atoms
69 atom types
11500 bonds
258 bond types
19500 angles
165 angle types
20500 dihedrals
47 dihedral types
2500 impropers
5 improper types

0.09419039977126431 49.905809600228636 xlo xhi
0.09419039977126431 49.905809600228636 ylo yhi
0.09419039977126431 49.905809600228636 zlo zhi

Masses

1 15.9994
2 15.9994
3 15.9994
4 15.9994
5 15.9994
6 14.0067
7 14.0067
8 14.0067
9 14.0067
10 14.0067
11 14.0067
12 12.011
13 12.011
14 13.019
15 14.027
16 15.035
17 16.043
18 14.027
19 12.011
20 1.008
21 1.008
22 1
23 32.06
24 63.546
25 63.546
26 55.847
27 65.37
28 24.305
29 40.08
30 39.948
31 18.9984
32 35.453
33 79.904
34 12.011
35 15.9994
36 22.9898
37 35.453
38 12.011
39 35.453
40 1.008
41 32.06
42 12.011
43 15.9994
44 12.011
45 35.453
46 18.9984
47 12.011
48 13.019
49 15.9994
50 12.011
51 15.9994
52 14.0067
53 15.035
54 126.90447
55 35.453
56 10.811
57 78.95999999999999
58 1.008
59 35.453
60 79.904
61 15.9994
62 14.0067
63 12.011
64 12.011
65 14.0067
66 14.0067
67 15.9994
68 28.08
69 30.9738

Pair Coeffs # lj/cut/coul/long

1 0.305714 2.76007
2 0.412295 2.62585
3 0.203061 2.95484
4 0.252656 2.84916
5 0.155394 3.16565
6 0.152915 3.13647
7 0.0700622 3.5722
8 0.152915 3.13647
9 0.104651 3.34113
10 0.152915 3.13647
11 0.152915 3.13647
12 0.0663015 3.58118
13 0.00167194 6.63949
14 0.0226791 5.01918
15 0.098122 4.07038
16 0.207254 3.74792
17 0.302012 3.70995
18 0.11455 3.95474
19 0.120138 3.74119
20 0.0282937 2.37341
21 0 0
22 0 0
23 0.455513 3.30769
24 2.039 1.5184
25 2.039 1.5184
26 0 0
27 1.107 1.68112
28 0.0747249 1.93323
29 0.121156 2.81311
30 0.238148 3.40984
31 0.10897 2.94006
32 0.300087 3.46982
33 0.69792 3.6508
34 0.243126 3.60124
35 0.131455 3.17694
36 0.00509651 3.12117
37 0.162149 4.09571
38 0.101741 3.40006
39 0.299511 3.44
40 0.0197496 2.20219
41 0.310038 3.55995
42 0.207254 3.74792
43 0.409923 2.63004
44 0.0544087 3.7739
45 0.270582 3.44757
46 0.0828967 3.07717
47 0.0970049 3.3611
48 0.117014 3.91992
49 0.203061 2.95484
50 0.105027 3.74991
51 0.210013 2.95998
52 0.169966 3.25006
53 0.207254 3.74792
54 0.836845 3.84961
55 0.329921 3.26983
56 0.0663015 3.58118
57 0.455513 3.30769
58 0 0
59 0.329921 3.26983
60 0.580843 3.89995
61 0.119432 3.40025
62 0.1399 3.9019
63 0.0734574 3.52053
64 0.245018 2.81144
65 0.142655 4.06776
66 0.219779 3.64529
67 0.119497 3.1
68 0.584786 3.38557
69 0.584786 3.38557

Bond Coeffs # harmonic

1 375.239 1
2 446.941 1
3 349.274 1.09
4 1109.29 1.12
5 600.242 1.23
6 500.418 1.25
7 499.732 1.32
8 375.003 1.33
9 448.144 1.33
10 498.877 1.33
11 450.617 1.34
12 502.116 1.34
13 450.906 1.36
14 500.679 1.38
15 399.904 1.39
16 498.726 1.39
17 400.057 1.4
18 399.792 1.43
19 450.132 1.43
20 300.222 1.435
21 449.843 1.47
22 299.976 1.48
23 399.968 1.48
24 450.226 1.48
25 450.108 1.5
26 299.844 1.52
27 400.034 1.53
28 299.851 1.61
29 299.727 1.63
30 205.976 1.78
31 449.816 1.78
32 449.828 1.83
33 300.045 1.87
34 59.9679 1.98
35 60.0382 2
36 500.307 2.04
37 63.0357 2.21
38 554.493 1
39 349.928 1.1
40 599.794 1.758
41 449.829 1.53
42 444.341 1.93799
43 599.679 1.76
44 501.026 1.265
45 448.656 1.35
46 555.129 1.63299
47 350.249 2.33839
48 600.161 2.90283
49 445.884 2.79388
50 443.815 2.91189
51 409.328 2.077
52 600.173 2.87407
53 88.4321 1.1
54 56.1663 1.84
55 513.862 1.01
56 310.707 1.41
57 442.161 1.02
58 239.006 1.46
59 513.862 1.29
60 442.161 0.972
61 812.62 1.22
62 466.061 1.22
63 239.006 1.54
64 179.254 1.56
65 227.055 1.54
66 106.358 1.76
67 131.453 1.69
68 203.155 1.75
69 203.155 1.51
70 143.403 1.57
71 179.254 0.971
72 191.205 1.5
73 262.906 1.45
74 549.713 1.52
75 83.652 1.03
76 191.205 1.74
77 191.205 1.72
78 227.055 1.64
79 203.155 1.67
80 191.205 1.66
81 215.105 1.65
82 513.862 1.31
83 155.354 1.01
84 35.8509 1.89
85 101.577 1.93
86 155.354 1.36
87 167.304 1.79
88 114.723 1.35
89 155.354 1.39
90 203.155 1.38
91 227.055 0.983
92 155.354 1.3
93 418.26 1.08
94 155.354 1.9
95 1314.53 1.16
96 143.403 1.8
97 155.354 1.42
98 478.011 0.984
99 119.503 1.08
100 119.503 1.91
101 418.26 1.03
102 525.813 1.28
103 131.453 1.22
104 143.403 1.11
105 1195.03 1.21
106 466.061 1.07
107 956.023 1.21
108 693.117 1.21
109 87.2371 1.85
110 394.359 1.11
111 109.943 2.09
112 131.453 1.82
113 99.1874 1.96
114 56.1663 1.86
115 167.304 1.21
116 167.304 1.28
117 143.403 1.71
118 131.453 1.6
119 454.111 1.21
120 41.826 1.61
121 131.453 1.94
122 155.354 1.59
123 143.403 2.1
124 119.503 2.12
125 57.3614 2.13
126 203.155 1.26
127 1195.03 1.14
128 191.205 1.23
129 788.719 1.3
130 239.006 1.31
131 59.7514 2.04
132 82.457 1.34
133 621.415 0.938
134 310.707 1.16
135 34.6558 2.07
136 60.9465 1.16
137 93.2122 2.16
138 43.021 2.23
139 23.9006 2.05
140 896.272 1.19
141 728.967 1.47
142 394.359 1.57
143 1195.03 1.18
144 54.9713 1.87
145 1063.58 1.17
146 215.105 1.13
147 59.7514 2.02
148 179.254 1.07
149 250.956 1.14
150 155.354 1.06
151 537.763 1.46
152 812.62 1.17
153 92.0172 2.15
154 239.006 1.04
155 60.9465 1.4
156 1314.53 1.11
157 466.061 1.56
158 752.868 1.49
159 501.912 1.54
160 35.8509 2.17
161 35.8509 2.27
162 669.216 1.45
163 764.818 1.25
164 848.47 1.27
165 561.663 1.16
166 1434.03 1.14
167 501.912 1.17
168 537.763 1.19
169 920.172 1.14
170 227.055 1.24
171 1434.03 1.13
172 89.6272 2.91
173 57.3614 2.24
174 418.26 0.743
175 239.006 1.2
176 111.138 2.33
177 96.7973 2.42
178 83.652 1.32
179 1159.18 1.2
180 1314.53 1.2
181 430.21 1.58
182 53.7763 1.47
183 1.55354 2.77
184 5.13862 2.25
185 100.382 2.18
186 50.1912 1.52
187 93.2122 2.19
188 27.4857 1.48
189 1912.05 1.07
190 8.60421 2.8
191 87.2371 2.52
192 0.669216 2.79
193 812.62 1.16
194 1.79254 2.68
195 406.31 1.59
196 119.503 1.18
197 34.6558 2.54
198 1792.54 1.1
199 824.57 1.29
200 33.4608 2.44
201 107.553 2.41
202 112.333 2.36
203 20.3155 1.43
204 2.27055 2.57
205 19.1205 2.47
206 0.764818 2.71
207 1553.54 1.12
208 3.70459 2.75
209 501.912 1.14
210 0.717017 2.86
211 10.5163 2.64
212 1912.05 0.985
213 1.91205 2.61
214 7.40918 2.62
215 59.7514 2.46
216 3.58509 2.66
217 1.31453 2.72
218 58.5564 1.63
219 573.614 1.12
220 37.0459 2.32
221 16.7304 1.44
222 1553.54 1.16
223 7.17017 2.69
224 10.0382 2.49
225 3.22658 2.92
226 0.82457 2.29
227 9.79924 2.4
228 1.03967 2.37
229 1.55354 2.94
230 5.85564 2.95
231 1.67304 2.96
232 0.0131453 2.56
233 5.25813 2.59
234 15.5354 2.38
235 836.52 1.12
236 1.91205 2.5
237 2.39006 2.3
238 585.564 1.04
239 3.34608 2.99
240 0.967973 2.34
241 1.07553 2.98
242 2.27055 2.74
243 1063.58 1.16
244 812.62 1.5
245 1.31453 2.84
246 0.322658 2.82
247 908.222 1.23
248 466.061 1.05
249 3.34608 2.88
250 1434.03 1.18
251 1673.04 1.15
252 6.33365 2.9
253 1027.72 1.24
254 418.26 1.9
255 2270.55 1.08
256 1434.03 1.21
257 764.818 0.975
258 0 0

Angle Coeffs # harmonic

1 45.3116 90
2 50.0917 90
3 47.7712 96
4 54.9551 100
5 47.5559 103
6 55.0345 104
7 50.1709 108
8 30.1731 109.5
9 33.8897 109.5
10 40.2609 109.5
11 45.0394 109.5
12 47.694 109.5
13 55.1272 109.5
14 47.635 109.6
15 55.1139 111
16 55.0997 113
17 4.824 115
18 45.0699 115
19 59.7937 115
20 44.8085 116
21 59.7719 116
22 60.1639 117
23 34.88 120
24 39.8095 120
25 45.1871 120
26 47.4278 120
27 50.1166 120
28 59.9756 120
29 69.8346 120
30 60.0726 121
31 60.091 122
32 34.8146 123
33 59.8929 124
34 30.0075 125
35 60.0779 125
36 44.9139 126
37 49.998 126
38 60.166 126
39 50.1189 132
40 47.5187 155
41 28.4971 180
42 45.9951 109.5
43 52.4767 107.57
44 65.472 111.3
45 55.0189 97.4
46 55.0247 106.75
47 47.5019 108.53
48 65.5335 109.5
49 54.9566 107.6
50 47.4817 109.5
51 54.9931 110.3
52 55.0234 111.4
53 60.044 117.2
54 60.0023 121.4
55 48.24 180
56 180.46 109
57 192.229 106
58 145.153 126
59 145.153 96.2
60 156.922 114
61 203.998 119
62 239.306 130
63 298.152 107
64 156.922 134
65 239.306 101
66 286.382 113
67 368.766 134
68 356.997 119
69 333.459 126
70 251.075 89.6
71 380.536 114
72 286.382 135
73 145.153 88.3
74 133.384 60
75 380.536 179
76 251.075 180
77 470.766 178
78 47.0766 59.9
79 47.0766 60.3
80 251.075 124
81 706.149 118
82 117.691 144
83 627.688 123
84 470.766 118
85 333.459 94.8
86 90.2301 175
87 156.922 82.8
88 117.691 77.6
89 239.306 145
90 251.075 50.8
91 380.536 104
92 262.844 84.4
93 215.768 63.3
94 215.768 61
95 298.152 173
96 192.229 173
97 82.384 50.9
98 431.535 127
99 62.7688 67.8
100 156.922 180
101 588.457 118
102 30.1731 110
103 227.537 94.8
104 431.535 173
105 34.5228 78.5
106 70.6149 138
107 70.6149 168
108 156.922 167
109 18.046 149
110 333.459 144
111 356.997 148
112 321.69 144
113 356.997 148
114 321.69 147
115 333.459 144
116 5099.96 60.8
117 1451.53 68
118 298.152 161
119 156.922 155
120 309.921 154
121 215.768 75.3
122 309.921 64.7
123 549.227 173
124 3334.59 45.8
125 863.071 123
126 549.227 123
127 470.766 166
128 380.536 166
129 203.998 139
130 66.6918 161
131 7.45379 44.9
132 25.1075 84.8
133 192.229 161
134 333.459 70.4
135 627.688 173
136 1.92229 51.6
137 21.5768 73.3
138 7.45379 174
139 470.766 132
140 145.153 69.9
141 15.6922 144
142 1922.29 97.9
143 392.305 155
144 588.457 104
145 117.691 149
146 509.996 157
147 286.382 166
148 333.459 89.8
149 392.305 79.1
150 6669.18 45.2
151 470.766 101
152 745.379 125
153 168.691 49.6
154 509.996 112
155 470.766 107
156 298.152 59.6
157 239.306 70.2
158 3923.05 100
159 3923.05 100
160 1059.22 46.3
161 1176.91 46.3
162 431.535 94.1
163 509.996 69.6
164 470.766 139
165 666.918 132

Dihedral Coeffs # harmonic

1 0.638145 -1 1
2 0.81501 -1 1
3 1.18786 -1 1
4 1.40057 -1 1
5 2.2347 -1 1
6 2.2586 -1 1
7 0.666826 1 1
8 1.27868 1 1
9 0.365679 -1 2
10 1.40057 -1 2
11 1.69933 -1 2
12 3.9914 -1 2
13 5.73614 -1 2
14 8.00669 -1 2
15 9.99044 -1 2
16 0 1 2
17 0.0999044 1 2
18 0.499522 1 2
19 0.750478 1 2
20 1.21654 1 2
21 3.9914 1 2
22 0.250956 1 3
23 0.301147 1 3
24 0.310707 1 3
25 0.604685 1 3
26 0.700287 1 3
27 0.762428 1 3
28 0.872371 1 3
29 0.901052 1 3
30 0.932122 1 3
31 0.999044 1 3
32 1.12094 1 3
33 1.30019 1 3
34 1.41491 1 3
35 1.83795 1 3
36 2.06023 1 3
37 2.27055 1 3
38 0 1 4
39 0.239006 -1 6
40 0.239006 1 6
41 0.901052 1 6
42 0.83652 -1 2
43 0.669216 1 3
44 0.167304 -1 6
45 0.0956023 1 6
46 0.239006 -1 3
47 0 1 1

Improper Coeffs # harmonic

1 20.0075 0
2 40.0151 35.2644
3 80.0302 0
4 20.0075 180
5 40.0151 -35.2644

Atoms # full

11907 982 56 0.652 4.544299184331607 6.670907377024417 3.8556746729056246 1 0 0
11910 982 31 -0.413 4.742615494121278 6.7048416970360085 2.482850761175685 1 0 0
11908 982 31 -0.413 4.544973076616806 5.38086418983329 4.323177055812034 1 0 0
4844 255 20 0.074 2.7970781887253753 1.989134284917343 3.196790978237689 0 1 1
4845 255 20 0.074 3.13663122646092 1.8366689700889074 4.826214809770693 0 1 1
4842 255 12 -0.186 3.6148722911461317 1.765905232872781 3.867983132434202 0 1 1
2149 114 64 -0.382 1.82231313448365 4.009732537289861 7.907570078001024 0 0 0
4843 255 20 0.074 4.2631487424430405 2.5739284630974124 3.754434636770223 0 1 1
6754 356 63 -0.156 7.348214368286032 7.359089931235364 1.2710697435649314 0 0 0
9008 475 64 -0.382 7.496219389246621 2.921545809922171 7.458730447757564 0 0 1
11909 982 31 -0.413 5.486616135382457 7.401928496648541 4.407140821815989 1 0 0
9017 475 63 -0.2 5.947598844613247 4.986165867182237 7.151145859720505 0 0 1
9010 475 20 0.177 8.440669023718408 2.7815729928490343 7.960342681706094 0 0 1
9018 475 20 0.236 5.091837200748094 4.43169842697916 6.800235481045446 0 0 1
1769 94 64 -0.382 2.893092213007441 4.308931273672784 1.6999053280891094 0 0 0
2152 114 62 0.265 1.2100625807120018 3.467668796547629 6.67518001174401 0 0 0
1768 94 20 0.177 2.694991362727731 3.311082781364993 1.5765733572103153 0 0 0
2150 114 20 0.177 1.1238682853264632 4.71718546460989 8.426195279917748 0 0 0
2148 114 20 0.177 2.713895721591508 4.485295911577141 7.614214028906598 0 0 0
1779 94 20 0.236 1.991547502936567 6.891749291846897 2.5218855999819265 0 0 0
6755 356 20 0.236 6.822144759954708 7.759469762384111 2.1142687119344243 0 0 0
1778 94 63 -0.2 1.400449804085189 6.352663422850223 1.7848529470800074 0 0 0
6764 356 20 0.074 7.338572277023468 5.948133191983684 3.8010822965748274 0 0 0
11906 982 31 -0.413 3.3167781467314614 7.208619889730787 4.270894488906205 1 0 0
1772 94 62 0.265 1.710806444827878 5.075396207061737 1.2997694989596345 0 0 0
9009 475 20 0.177 7.49317990915639 2.5055790981203745 6.4144358368921885 0 0 1
6762 356 20 0.074 7.161752006956261 4.338860243891082 3.119941598338252 0 0 0
10809 762 31 -0.413 5.3178509207101765 0.2924821591181902 6.759246408615706 0 0 1
10807 762 56 0.652 4.605465305637489 0.9439316758909234 7.749436740896501 0 0 1
9011 475 62 0.265 7.192673826653883 4.414279711752078 7.3649522383966906 0 0 1
9007 475 20 0.177 6.799162870737094 2.4010259488412435 8.064020218227393 0 0 1
9741 549 31 -0.413 7.529831977223859 1.6786514238988053 3.928785268179686 0 0 1
2154 114 20 0.242 0.6809796161397207 1.373756862903091 7.219554825209065 0 0 0
2153 114 63 -0.099 0.6104577219656542 2.2751742651707456 6.529962472605737 0 0 0
1771 94 20 0.177 3.1624566819927136 4.522315033688356 2.739806374890971 0 0 0
9015 475 63 -0.156 6.047117594776993 6.313272793111305 7.2571585058421135 0 0 1
9014 475 62 0.049 7.406158734534693 6.570536509987176 7.401820359350179 0 0 1
9012 475 63 -0.099 8.067725383920227 5.409458545800439 7.4589585693009886 0 0 1
5924 312 20 0.06900000000000001 0.9370109064800883 7.7776101041267705 5.741835025850323 1 1 0
11575 915 31 -0.413 1.9091864899836857 1.2741378907374563 1.023930122170512 0 1 1
6761 356 12 -0.186 7.888915759232585 5.027361004533905 3.4684958866395172 0 0 0
6763 356 20 0.074 8.366629622505085 4.567030502423339 4.314732865914092 0 0 0
6753 356 62 0.049 8.059332816801696 6.187550688346304 1.250884841833189 0 0 0
9016 475 20 0.236 5.265192227393899 6.936786020873337 7.44899240422765 0 0 1
8696 458 64 0.104 0.10062187964368974 18.067622140635397 16.545784353880602 1 0 0
6903 364 63 -0.099 24.42972596280349 24.93145746733232 8.05034793251729 0 0 0
11572 915 56 0.652 0.5492422861762045 1.1778744540649426 0.6484750688055162 0 1 1
9744 549 31 -0.413 6.83538585194824 1.6217221361600203 1.7099955762831978 0 0 1
6758 356 64 0.104 8.817526117006693 5.490786365784459 2.3530343715084703 0 0 0
9019 475 64 0.104 8.02516886245689 7.9150194754173215 7.317039048436732 0 0 1
2159 114 20 0.236 1.6684867511813937 5.135335978670447 5.45418041577306 0 0 0
4957 261 20 0.074 2.9814353418033672 9.484562181620502 1.697017233389861 1 0 0
2158 114 63 -0.2 1.107616516893418 4.170582747468483 5.524733884568691 0 0 0
11967 994 56 0.652 24.04340434213656 0.3327744409274492 24.62614194144718 0 1 0
2549 135 20 0.177 21.81014382747176 13.703430919114009 23.82111642638017 0 0 0
10205 641 31 -0.413 2.235048005058423 7.287084632626746 7.548993822659252 0 0 0
2156 114 63 -0.156 0.3515973384354499 3.4243443415102646 4.696469492881586 0 0 0
530 28 20 0.074 5.8726859047349445 0.15533849211518566 13.328489942494365 0 0 0
1770 94 20 0.177 3.780221734813165 4.532256901619137 1.1266712273754798 0 0 0
5881 310 20 0.236 2.429013378329512 0.7461277561752534 12.72503107004728 0 0 0
10114 623 31 -0.413 1.0792168766413364 24.338851837146688 14.702840377736583 0 0 0
9742 549 56 0.652 7.852548361341608 1.3744497107078797 2.62175480163919 0 0 1
6759 356 20 0.06900000000000001 9.48402810908893 6.243236737458392 2.737113526680258 0 0 0
9743 549 31 -0.413 9.028660871240323 2.067374838829344 2.2708608094089104 0 0 1
9013 475 20 0.242 9.082159847488866 5.272683287204645 7.6164070954018985 0 0 1
6760 356 20 0.06900000000000001 9.3948716339837 4.638205365937882 1.9559953842551645 0 0 0
5056 267 64 -0.382 10.077269102231257 1.6475449638275563 5.651324498471624 1 0 0
2688 142 63 -0.156 13.327752147684123 2.727891549270292 4.032813038878338 0 1 0
2687 142 62 0.049 14.728782087862744 2.7661444568218783 3.9907683821248727 0 1 0
2690 142 63 -0.2 12.882269629534967 2.8673246642906647 2.745047210317169 0 1 0
2685 142 63 -0.099 15.107748586418657 2.8610706676122426 2.692896546252942 0 1 0
2684 142 62 0.265 13.961622197765811 2.9357133951693126 1.9309619515348058 0 1 0
10952 791 56 0.652 11.480807322110916 5.166588181465816 6.1683882659549845 0 0 0
10953 791 31 -0.413 12.826457497126095 5.128242277923942 5.865280085868396 0 0 0
2686 142 20 0.242 16.113765284339276 2.755139249816227 2.3661007163363514 0 1 0
2691 142 20 0.236 11.88379702987099 3.056306996578188 2.3648051140822592 0 1 0
10955 791 31 -0.413 10.696210977365618 5.230631470551966 4.986670555885243 0 0 0
10951 791 31 -0.413 11.14481001656713 4.028593412524646 6.8815252007007475 0 0 0
10954 791 31 -0.413 11.205088342254097 6.247264612822779 7.082389654699267 0 0 0
1421 75 20 0.06900000000000001 12.895075118411926 5.899067476272714 3.6615233657978643 0 1 0
1419 75 64 0.104 13.476810492222285 6.650841493990375 3.0779088533780197 0 1 0
2692 142 64 0.104 15.594282523259741 3.2758341549984524 5.119320409926272 0 1 0
1416 75 20 0.236 11.530556540293832 7.736750172915796 4.782463242077652 0 1 0
4734 250 20 0.177 14.775073962210548 6.024534760417304 7.501876394765116 0 0 0
11679 936 31 -0.413 14.322347556128918 1.478040447511824 7.509823859685743 0 0 0
1423 75 20 0.074 15.525438210412663 6.068874436132342 3.701728681903419 0 1 0
1422 75 12 -0.186 14.761144657806888 6.949672477911686 3.7824973104793527 0 1 0
2695 142 12 -0.186 16.510757847957546 2.177247357320004 5.5308860580615615 0 1 0
1425 75 20 0.074 14.57376686141211 6.969960150960497 4.876923514707219 0 1 0
1415 75 63 -0.156 11.5972597481737 8.126216811108229 3.8077607746638233 0 1 0
2689 142 20 0.236 12.794828385255212 2.8167289890036353 4.981917643309136 0 1 0
5055 267 20 0.177 9.56549343372372 2.5820196048532726 5.7171705859985344 1 0 0
2698 142 20 0.074 16.06174742833676 1.2149382482214657 5.575883742748872 0 1 0
2693 142 20 0.06900000000000001 14.91650764950315 3.573042172720993 5.906778252017333 0 1 0
2694 142 20 0.06900000000000001 16.16012854789143 4.123822947859985 4.779115895039577 0 1 0
9025 475 20 0.074 9.178420443982683 7.529091225969797 5.577067320959563 0 0 1
5057 267 20 0.177 11.14761943150937 1.9474862545369407 5.687939215415341 1 0 0
4735 250 20 0.177 13.464744158942217 7.24238490567706 7.829241465777657 0 0 0
1420 75 20 0.06900000000000001 13.539459728363713 6.19765732744317 2.122040209461001 0 1 0
5061 267 20 0.242 10.88549223079828 0.8363289121152575 8.306852351687759 1 0 0
5060 267 63 -0.099 10.087875848423476 0.2909229061268988 7.784405941102811 1 0 0
1414 75 62 0.049 12.629144962476738 7.883172749446151 2.9550679042569667 0 1 0
1424 75 20 0.074 15.219934707344775 7.947398124142703 3.4621676551942038 0 1 0
5059 267 62 0.265 9.68377638873853 0.5171522934975399 6.540100374851626 1 0 0
9863 573 31 -0.413 16.507674094787063 5.3665031799537735 1.604958610324107 0 0 1
919 49 20 0.242 16.63186979409942 0.5081248516123815 7.8306657157579584 0 0 0
9022 475 12 -0.186 8.44943330116794 8.225581523065697 5.82393902579548 0 0 1
4460 235 20 0.06900000000000001 8.097524307918468 23.972325594561536 21.723977602960186 0 0 0
10789 758 31 -0.413 11.655131104023724 5.524219500154689 0.8183512305970622 0 0 1
10256 652 31 -0.413 14.002212098569595 0.7689609205125953 20.504571996258054 0 0 0
11678 936 31 -0.413 12.88627560389712 0.31628467016952067 6.165780546385218 0 0 0
5058 267 20 0.177 9.886176394130237 1.3298953583950466 4.664108436295343 1 0 0
9984 597 31 -0.413 3.0502519833145856 24.794950008626508 18.22748087929271 0 0 0
5796 306 20 0.177 24.804382654172855 6.703836848593901 6.40056735008856 0 0 1
11677 936 56 0.652 13.765692157405958 0.22578151205707894 7.235239286289339 0 0 0
11041 809 31 -0.413 16.130102644165223 0.4294413596409656 0.4391475995835533 0 0 1
2681 142 64 -0.382 13.971114049138256 3.4115040039809648 0.5746919756619817 0 1 0
2186 116 20 0.177 11.485389373373541 24.45610683723383 15.596678718134145 0 0 0
2697 142 20 0.074 16.869055797226068 2.431462878591617 6.560289177080392 0 1 0
10040 608 31 -0.413 17.21342668383204 5.310069598574248 6.931063446359176 0 1 0
2696 142 20 0.074 17.395165267983376 2.019572522981442 4.886847319574911 0 1 0
5807 306 20 0.236 24.526168280115673 4.062020600447947 5.07883437189842 0 0 1
11222 845 56 0.652 23.68771589167733 0.9478787592903725 2.7428922649274674 0 0 0
5797 306 64 -0.382 24.402888992998946 6.684281797557672 5.395291709829651 0 0 1
5813 306 20 0.074 18.32665994968227 4.180794274542682 4.08082627652473 0 0 1
5803 306 62 0.049 21.43376953651743 4.856374413059221 5.472965040194866 0 0 1
5809 306 20 0.06900000000000001 19.479843762408937 5.521825136081889 5.75383196046357 0 0 1
5811 306 12 -0.186 19.39862365657429 4.287432860716627 4.0082632553361135 0 0 1
5810 306 20 0.06900000000000001 19.77450706340925 3.8163791096820203 6.086921853322559 0 0 1
5808 306 64 0.104 19.987644185610094 4.625374637770721 5.365890036116698 0 0 1
5812 306 20 0.074 19.846838136185227 3.3542596697271034 3.5841037884459674 0 0 1
5814 306 20 0.074 19.621382554247788 5.085214458128421 3.2677148299702248 0 0 1
5805 306 20 0.236 21.921755406993764 2.8270039410456045 4.938138667435542 0 0 1
5804 306 63 -0.156 22.312240579414382 3.869151033558687 5.077717792916102 0 0 1
5801 306 63 -0.099 22.017053372021355 6.001408447424529 5.5069814834515585 0 0 1
5806 306 63 -0.2 23.527922973812338 4.502245948667518 4.906961606158439 0 0 1
5800 306 62 0.265 23.298605219705166 5.798474217553888 5.269428505279065 0 0 1
5802 306 20 0.242 21.574499594794023 6.985921307595849 5.759663157155842 0 0 1
2222 117 20 0.074 23.068761070252304 5.673806895367635 2.189067783888465 0 0 1
2220 117 12 -0.186 23.931652357986597 5.6383083780510415 1.5359186405613197 0 0 1
10037 608 56 0.652 18.007705674788912 6.209479869120101 7.767582330373811 0 1 0
3819 201 20 0.074 24.75198073159276 2.2321513214959077 6.132750213758181 0 0 0
8191 432 64 -0.382 18.33519358597356 0.4711996712135007 3.0883822499212936 0 1 1
3816 201 12 -0.186 24.23470710824068 1.6582413127518734 6.938515739682097 0 0 0
5799 306 20 0.177 24.02467475866026 7.65849047131097 5.180997271117091 0 0 1
2218 117 20 0.06900000000000001 23.364823566279508 7.549547762328733 0.748116735106328 0 0 1
10036 608 31 -0.413 18.406939691368787 7.394181003147788 7.084115758204408 0 1 0
10039 608 31 -0.413 19.123154140123642 5.529026137072048 8.145195586223501 0 1 0
11203 841 31 -0.413 19.069800256841575 1.715918695605432 6.998012969747457 0 1 1
3818 201 20 0.074 23.834871125654285 2.2855550154527595 7.744244992087493 0 0 0
11202 841 56 0.652 19.981535135098756 0.8323054343507406 6.421152823474385 0 1 1
6059 319 20 0.074 18.47603361675101 7.307190324352951 3.9562886543125564 0 0 0
11223 845 31 -0.413 24.141890673717224 2.216754182969831 3.0361522259583507 0 0 0
11225 845 31 -0.413 22.696540172407957 1.0460413926121976 1.720298729615576 0 0 0
6426 339 20 0.177 20.617016938692597 3.6718247584849606 8.388545656254108 1 1 0
3615 191 62 0.265 8.16368149233657 3.217599887372543 24.70058953116946 0 0 0
9156 482 20 0.074 21.49892134758216 3.3135500562411155 1.407607202607941 0 1 1
9862 573 56 0.652 17.527191863994382 4.810743753930384 0.8525807838442445 0 0 1
2217 117 64 0.104 23.843029288986152 6.630876851521495 0.3785889066816074 0 0 1
1750 93 64 -0.382 1.4079630468581623 10.582953312035995 12.026673586037315 0 0 0
9865 573 31 -0.413 18.070213669331565 3.819206291395441 1.6253317975446104 0 0 1
11120 824 31 -0.413 21.91672355093636 8.113438083425697 8.242037635495077 0 0 1
11204 841 31 -0.413 20.40817711793055 1.1622692062925943 5.090113320207238 0 1 1
9175 483 20 0.074 19.50888428226473 24.542792996908197 15.127543090944192 0 0 1
8190 432 20 0.177 18.675175511327314 1.5164503954100015 2.9696506297781133 0 1 1
10257 652 56 0.652 13.2266100917484 0.19409927046648642 19.47943429998402 0 0 0
11118 824 31 -0.413 23.80920056479123 8.94726362850327 7.258979231120262 0 0 1
11403 881 31 -0.413 24.83246489080667 13.783801408837329 23.98307352307129 0 0 0
8193 432 20 0.177 18.5384726043606 0.1611273060818191 4.075737144446112 0 1 1
10069 614 31 -0.413 0.49441702359649936 11.321596580662309 8.684311513031716 1 0 0
6434 339 20 0.236 22.243543971975555 5.6053141131855755 8.712452176949087 1 1 0
6425 339 20 0.177 20.379502113227804 3.9449647903034957 10.115161772634012 1 1 0
8259 435 64 0.104 15.06512418286143 0.4020310146323321 23.453890718465757 0 0 0
9154 482 20 0.06900000000000001 19.610567065206162 1.7506861967673464 0.5073846480557279 0 1 1
9864 573 31 -0.413 18.531347209625036 5.797953654393446 0.6354811255130669 0 0 1
5926 312 20 0.074 0.4290427441023474 8.77958259370623 3.383300346849669 1 1 0
11032 807 56 0.652 0.3129786869655085 13.560321981384842 2.2547462715297812 0 0 1
79 5 20 0.177 5.231756731150349 9.647459359935766 6.773159173408485 0 0 0
4958 261 20 0.074 4.664649172305846 9.064568338949007 1.552263396800455 1 0 0
4956 261 12 -0.186 3.8335138608782366 9.519738869929025 1.0052802942918526 1 0 0
80 5 20 0.177 3.5856524361195916 9.281037776688983 7.318755494909834 0 0 0
77 5 20 0.177 4.23276665293168 8.472822272727429 5.854378690288484 0 0 0
88 5 20 0.236 1.7863609620239722 10.682371460509628 6.238195482427284 0 0 0
83 5 20 0.242 5.565605383855053 10.982426401020549 4.5660008296108705 0 0 0
81 5 62 0.265 3.8502489892333784 10.515427793864822 5.653313820459167 0 0 0
82 5 63 -0.099 4.5966452316547155 11.318858188872705 4.898725339757374 0 0 0
87 5 63 -0.2 2.5939771494597994 11.142791975635179 5.769785625463656 0 0 0
85 5 63 -0.156 2.6042098018500175 12.33256840419821 5.071386128762836 0 0 0
86 5 20 0.236 1.7111406906498736 12.866525656369053 4.6563694206812665 0 0 0
84 5 62 0.049 3.935737241444717 12.442484128224473 4.610904700774322 0 0 0
89 5 64 0.104 4.489357853080313 13.708620640115656 4.182731311477183 0 0 0
78 5 64 -0.382 4.255767593503116 9.403820413594852 6.464253277532956 0 0 0
90 5 20 0.06900000000000001 3.809298713976104 14.239687163744197 3.5240251912802214 0 0 0
91 5 20 0.06900000000000001 5.406604787048445 13.569675655037457 3.5645035559333236 0 0 0
92 5 12 -0.186 5.020553337925184 14.55790759080828 5.360798381875388 0 0 0
94 5 20 0.074 4.339787144828905 14.397277984955037 6.2474034773959115 0 0 0
4959 261 20 0.074 4.080506752783368 10.573353637054328 0.8225179549913062 1 0 0
11035 807 31 -0.413 0.5977659593632351 12.181890990643472 2.5106527659819595 0 0 1
95 5 20 0.074 6.053395024202699 14.313168106344062 5.611681805889229 0 0 0
11033 807 31 -0.413 1.4109101566418427 14.14199416990989 1.4920013999052268 0 0 1
9619 524 31 -0.413 3.284766945132939 15.83131511748858 8.008867371629757 0 0 0
93 5 20 0.074 5.211733616502214 15.55144631855559 5.177740214322347 0 0 0
11533 907 31 -0.413 7.484490183948793 10.932048864690982 6.483260486013271 0 0 0
2518 133 20 0.236 6.259533737415955 15.363690794682654 1.2116908493303793 0 0 0
11532 907 56 0.652 7.383390640996855 11.650169210097562 7.644080111139821 0 0 0
10415 683 31 -0.413 8.338032151960455 12.459624131224649 2.607733740118409 0 1 1
10413 683 31 -0.413 6.37543337679206 11.664966070644912 1.9635720388933917 0 1 1
7352 387 20 0.074 1.9891496012800753 15.596385163185868 5.184771464999723 1 0 0
10412 683 56 0.652 7.730660724019027 11.336096250464735 2.04446107228806 0 1 1
10411 683 31 -0.413 7.9398750353476615 10.224778326979568 2.810448326750876 0 1 1
2523 133 20 0.06900000000000001 8.295268330480546 13.921043455224288 0.5219840314509261 0 0 0
11031 807 31 -0.413 0.11689122570782264 14.253116085092076 3.4437610036492936 0 0 1
7349 387 20 0.06900000000000001 0.4800413016899606 14.560264006064106 6.690014139559084 1 0 0
9023 475 20 0.074 7.602161725637727 8.12949252047841 5.174618983175137 0 0 1
11508 902 31 -0.413 7.534727942613042 16.471661125562527 4.000879874169394 0 0 0
4990 263 20 0.236 17.11094930176742 8.465960781477554 0.15162154077591744 0 0 1
4276 226 20 0.177 8.724372246970699 13.01641267634309 5.558295937044981 1 0 0
4279 226 20 0.177 8.191028198419508 14.744112235425233 5.277088915623115 1 0 0
191 11 20 0.177 5.2806470232607445 24.899165051081265 4.025574834902928 0 0 0
5994 316 63 -0.156 0.2101433100101318 7.971298126878711 23.798703363467226 1 1 0
11535 907 31 -0.413 6.84278018462664 12.891461260295985 7.340331609355648 0 0 0
4841 255 20 0.06900000000000001 5.030311671179397 0.1352884819311181 4.0059149160745955 0 1 1
10068 614 31 -0.413 0.11265563505072151 13.535184164647271 9.026116878631202 1 0 0
8192 432 20 0.177 17.299161499266585 0.3008004982432623 2.8640818068220533 0 1 1
1591 84 20 0.06900000000000001 18.569502674243896 1.496864095008716 13.93807664595759 0 1 0
1584 84 20 0.242 15.958806507743589 1.3380818674404946 16.66952270583367 0 1 0
5990 316 62 0.265 1.3359515577024983 9.724327341305806 24.523695526334425 1 1 0
11205 841 31 -0.413 21.041117659100678 0.7347966119659622 7.331439360471219 0 1 1
4459 235 64 0.104 7.34148283995602 24.743167957382276 21.65560728570895 0 0 0
1410 75 20 0.177 11.04582905998113 11.098653366680846 0.7548929174479011 0 1 0
1418 75 20 0.236 10.031261268405789 9.758408840331173 3.6490176717388922 0 1 0
10414 683 31 -0.413 8.271435735603003 11.167575631202633 0.7749938160267026 0 1 1
4278 226 20 0.177 9.330629708173547 14.25199264432919 6.640695792339638 1 0 0
1417 75 63 -0.2 10.890612870341903 9.213763680702067 3.279352030842344 0 1 0
4277 226 64 -0.382 8.979795231391137 14.08286479554635 5.64844912351735 1 0 0
1413 75 20 0.242 13.206128867883745 8.671281422320337 1.2198650513192784 0 1 0
1412 75 63 -0.099 12.594108868288341 8.80103922325862 1.989762991495709 0 1 0
1408 75 64 -0.382 11.586514897765024 11.071742411410515 1.6696715571806744 0 1 0
1411 75 62 0.265 11.584557847764728 9.684650282847324 2.2185246382800146 0 1 0
9667 534 56 0.652 15.203856431952369 11.552472424472946 3.5074387209631066 0 0 0
4280 226 62 0.265 10.12302838452832 14.310349655924291 4.7357642516703065 1 0 0
4283 226 62 0.049 11.381421491478296 14.921325735814499 3.074029397549938 1 0 0
4284 226 63 -0.156 12.202168806297808 14.707993884619341 4.148716756578985 1 0 0
4286 226 63 -0.2 11.434916817380683 14.289606797227197 5.184503259442781 1 0 0
4281 226 63 -0.099 10.144911901761649 14.672517931097968 3.4780176831030873 1 0 0
4287 226 20 0.236 11.787491690419616 14.171707054675199 6.243946891824813 1 0 0