LAMMPS data file via write_data, version 2 Aug 2023, timestep = 4000000, units = real

12000 atoms
69 atom types
11500 bonds
258 bond types
19500 angles
165 angle types
20500 dihedrals
47 dihedral types
2500 impropers
5 improper types

0.12366332001029434 49.876336680000136 xlo xhi
0.12366332001029434 49.876336680000136 ylo yhi
0.12366332001029434 49.876336680000136 zlo zhi

Masses

1 15.9994
2 15.9994
3 15.9994
4 15.9994
5 15.9994
6 14.0067
7 14.0067
8 14.0067
9 14.0067
10 14.0067
11 14.0067
12 12.011
13 12.011
14 13.019
15 14.027
16 15.035
17 16.043
18 14.027
19 12.011
20 1.008
21 1.008
22 1
23 32.06
24 63.546
25 63.546
26 55.847
27 65.37
28 24.305
29 40.08
30 39.948
31 18.9984
32 35.453
33 79.904
34 12.011
35 15.9994
36 22.9898
37 35.453
38 12.011
39 35.453
40 1.008
41 32.06
42 12.011
43 15.9994
44 12.011
45 35.453
46 18.9984
47 12.011
48 13.019
49 15.9994
50 12.011
51 15.9994
52 14.0067
53 15.035
54 126.90447
55 35.453
56 10.811
57 78.95999999999999
58 1.008
59 35.453
60 79.904
61 15.9994
62 14.0067
63 12.011
64 12.011
65 14.0067
66 14.0067
67 15.9994
68 28.08
69 30.9738

Pair Coeffs # lj/cut/coul/long

1 0.305714 2.76007
2 0.412295 2.62585
3 0.203061 2.95484
4 0.252656 2.84916
5 0.155394 3.16565
6 0.152915 3.13647
7 0.0700622 3.5722
8 0.152915 3.13647
9 0.104651 3.34113
10 0.152915 3.13647
11 0.152915 3.13647
12 0.0663015 3.58118
13 0.00167194 6.63949
14 0.0226791 5.01918
15 0.098122 4.07038
16 0.207254 3.74792
17 0.302012 3.70995
18 0.11455 3.95474
19 0.120138 3.74119
20 0.0282937 2.37341
21 0 0
22 0 0
23 0.455513 3.30769
24 2.039 1.5184
25 2.039 1.5184
26 0 0
27 1.107 1.68112
28 0.0747249 1.93323
29 0.121156 2.81311
30 0.238148 3.40984
31 0.10897 2.94006
32 0.300087 3.46982
33 0.69792 3.6508
34 0.243126 3.60124
35 0.131455 3.17694
36 0.00509651 3.12117
37 0.162149 4.09571
38 0.101741 3.40006
39 0.299511 3.44
40 0.0197496 2.20219
41 0.310038 3.55995
42 0.207254 3.74792
43 0.409923 2.63004
44 0.0544087 3.7739
45 0.270582 3.44757
46 0.0828967 3.07717
47 0.0970049 3.3611
48 0.117014 3.91992
49 0.203061 2.95484
50 0.105027 3.74991
51 0.210013 2.95998
52 0.169966 3.25006
53 0.207254 3.74792
54 0.836845 3.84961
55 0.329921 3.26983
56 0.0663015 3.58118
57 0.455513 3.30769
58 0 0
59 0.329921 3.26983
60 0.580843 3.89995
61 0.119432 3.40025
62 0.1399 3.9019
63 0.0734574 3.52053
64 0.245018 2.81144
65 0.142655 4.06776
66 0.219779 3.64529
67 0.119497 3.1
68 0.584786 3.38557
69 0.584786 3.38557

Bond Coeffs # harmonic

1 375.239 1
2 446.941 1
3 349.274 1.09
4 1109.29 1.12
5 600.242 1.23
6 500.418 1.25
7 499.732 1.32
8 375.003 1.33
9 448.144 1.33
10 498.877 1.33
11 450.617 1.34
12 502.116 1.34
13 450.906 1.36
14 500.679 1.38
15 399.904 1.39
16 498.726 1.39
17 400.057 1.4
18 399.792 1.43
19 450.132 1.43
20 300.222 1.435
21 449.843 1.47
22 299.976 1.48
23 399.968 1.48
24 450.226 1.48
25 450.108 1.5
26 299.844 1.52
27 400.034 1.53
28 299.851 1.61
29 299.727 1.63
30 205.976 1.78
31 449.816 1.78
32 449.828 1.83
33 300.045 1.87
34 59.9679 1.98
35 60.0382 2
36 500.307 2.04
37 63.0357 2.21
38 554.493 1
39 349.928 1.1
40 599.794 1.758
41 449.829 1.53
42 444.341 1.93799
43 599.679 1.76
44 501.026 1.265
45 448.656 1.35
46 555.129 1.63299
47 350.249 2.33839
48 600.161 2.90283
49 445.884 2.79388
50 443.815 2.91189
51 409.328 2.077
52 600.173 2.87407
53 88.4321 1.1
54 56.1663 1.84
55 513.862 1.01
56 310.707 1.41
57 442.161 1.02
58 239.006 1.46
59 513.862 1.29
60 442.161 0.972
61 812.62 1.22
62 466.061 1.22
63 239.006 1.54
64 179.254 1.56
65 227.055 1.54
66 106.358 1.76
67 131.453 1.69
68 203.155 1.75
69 203.155 1.51
70 143.403 1.57
71 179.254 0.971
72 191.205 1.5
73 262.906 1.45
74 549.713 1.52
75 83.652 1.03
76 191.205 1.74
77 191.205 1.72
78 227.055 1.64
79 203.155 1.67
80 191.205 1.66
81 215.105 1.65
82 513.862 1.31
83 155.354 1.01
84 35.8509 1.89
85 101.577 1.93
86 155.354 1.36
87 167.304 1.79
88 114.723 1.35
89 155.354 1.39
90 203.155 1.38
91 227.055 0.983
92 155.354 1.3
93 418.26 1.08
94 155.354 1.9
95 1314.53 1.16
96 143.403 1.8
97 155.354 1.42
98 478.011 0.984
99 119.503 1.08
100 119.503 1.91
101 418.26 1.03
102 525.813 1.28
103 131.453 1.22
104 143.403 1.11
105 1195.03 1.21
106 466.061 1.07
107 956.023 1.21
108 693.117 1.21
109 87.2371 1.85
110 394.359 1.11
111 109.943 2.09
112 131.453 1.82
113 99.1874 1.96
114 56.1663 1.86
115 167.304 1.21
116 167.304 1.28
117 143.403 1.71
118 131.453 1.6
119 454.111 1.21
120 41.826 1.61
121 131.453 1.94
122 155.354 1.59
123 143.403 2.1
124 119.503 2.12
125 57.3614 2.13
126 203.155 1.26
127 1195.03 1.14
128 191.205 1.23
129 788.719 1.3
130 239.006 1.31
131 59.7514 2.04
132 82.457 1.34
133 621.415 0.938
134 310.707 1.16
135 34.6558 2.07
136 60.9465 1.16
137 93.2122 2.16
138 43.021 2.23
139 23.9006 2.05
140 896.272 1.19
141 728.967 1.47
142 394.359 1.57
143 1195.03 1.18
144 54.9713 1.87
145 1063.58 1.17
146 215.105 1.13
147 59.7514 2.02
148 179.254 1.07
149 250.956 1.14
150 155.354 1.06
151 537.763 1.46
152 812.62 1.17
153 92.0172 2.15
154 239.006 1.04
155 60.9465 1.4
156 1314.53 1.11
157 466.061 1.56
158 752.868 1.49
159 501.912 1.54
160 35.8509 2.17
161 35.8509 2.27
162 669.216 1.45
163 764.818 1.25
164 848.47 1.27
165 561.663 1.16
166 1434.03 1.14
167 501.912 1.17
168 537.763 1.19
169 920.172 1.14
170 227.055 1.24
171 1434.03 1.13
172 89.6272 2.91
173 57.3614 2.24
174 418.26 0.743
175 239.006 1.2
176 111.138 2.33
177 96.7973 2.42
178 83.652 1.32
179 1159.18 1.2
180 1314.53 1.2
181 430.21 1.58
182 53.7763 1.47
183 1.55354 2.77
184 5.13862 2.25
185 100.382 2.18
186 50.1912 1.52
187 93.2122 2.19
188 27.4857 1.48
189 1912.05 1.07
190 8.60421 2.8
191 87.2371 2.52
192 0.669216 2.79
193 812.62 1.16
194 1.79254 2.68
195 406.31 1.59
196 119.503 1.18
197 34.6558 2.54
198 1792.54 1.1
199 824.57 1.29
200 33.4608 2.44
201 107.553 2.41
202 112.333 2.36
203 20.3155 1.43
204 2.27055 2.57
205 19.1205 2.47
206 0.764818 2.71
207 1553.54 1.12
208 3.70459 2.75
209 501.912 1.14
210 0.717017 2.86
211 10.5163 2.64
212 1912.05 0.985
213 1.91205 2.61
214 7.40918 2.62
215 59.7514 2.46
216 3.58509 2.66
217 1.31453 2.72
218 58.5564 1.63
219 573.614 1.12
220 37.0459 2.32
221 16.7304 1.44
222 1553.54 1.16
223 7.17017 2.69
224 10.0382 2.49
225 3.22658 2.92
226 0.82457 2.29
227 9.79924 2.4
228 1.03967 2.37
229 1.55354 2.94
230 5.85564 2.95
231 1.67304 2.96
232 0.0131453 2.56
233 5.25813 2.59
234 15.5354 2.38
235 836.52 1.12
236 1.91205 2.5
237 2.39006 2.3
238 585.564 1.04
239 3.34608 2.99
240 0.967973 2.34
241 1.07553 2.98
242 2.27055 2.74
243 1063.58 1.16
244 812.62 1.5
245 1.31453 2.84
246 0.322658 2.82
247 908.222 1.23
248 466.061 1.05
249 3.34608 2.88
250 1434.03 1.18
251 1673.04 1.15
252 6.33365 2.9
253 1027.72 1.24
254 418.26 1.9
255 2270.55 1.08
256 1434.03 1.21
257 764.818 0.975
258 0 0

Angle Coeffs # harmonic

1 45.3116 90
2 50.0917 90
3 47.7712 96
4 54.9551 100
5 47.5559 103
6 55.0345 104
7 50.1709 108
8 30.1731 109.5
9 33.8897 109.5
10 40.2609 109.5
11 45.0394 109.5
12 47.694 109.5
13 55.1272 109.5
14 47.635 109.6
15 55.1139 111
16 55.0997 113
17 4.824 115
18 45.0699 115
19 59.7937 115
20 44.8085 116
21 59.7719 116
22 60.1639 117
23 34.88 120
24 39.8095 120
25 45.1871 120
26 47.4278 120
27 50.1166 120
28 59.9756 120
29 69.8346 120
30 60.0726 121
31 60.091 122
32 34.8146 123
33 59.8929 124
34 30.0075 125
35 60.0779 125
36 44.9139 126
37 49.998 126
38 60.166 126
39 50.1189 132
40 47.5187 155
41 28.4971 180
42 45.9951 109.5
43 52.4767 107.57
44 65.472 111.3
45 55.0189 97.4
46 55.0247 106.75
47 47.5019 108.53
48 65.5335 109.5
49 54.9566 107.6
50 47.4817 109.5
51 54.9931 110.3
52 55.0234 111.4
53 60.044 117.2
54 60.0023 121.4
55 48.24 180
56 180.46 109
57 192.229 106
58 145.153 126
59 145.153 96.2
60 156.922 114
61 203.998 119
62 239.306 130
63 298.152 107
64 156.922 134
65 239.306 101
66 286.382 113
67 368.766 134
68 356.997 119
69 333.459 126
70 251.075 89.6
71 380.536 114
72 286.382 135
73 145.153 88.3
74 133.384 60
75 380.536 179
76 251.075 180
77 470.766 178
78 47.0766 59.9
79 47.0766 60.3
80 251.075 124
81 706.149 118
82 117.691 144
83 627.688 123
84 470.766 118
85 333.459 94.8
86 90.2301 175
87 156.922 82.8
88 117.691 77.6
89 239.306 145
90 251.075 50.8
91 380.536 104
92 262.844 84.4
93 215.768 63.3
94 215.768 61
95 298.152 173
96 192.229 173
97 82.384 50.9
98 431.535 127
99 62.7688 67.8
100 156.922 180
101 588.457 118
102 30.1731 110
103 227.537 94.8
104 431.535 173
105 34.5228 78.5
106 70.6149 138
107 70.6149 168
108 156.922 167
109 18.046 149
110 333.459 144
111 356.997 148
112 321.69 144
113 356.997 148
114 321.69 147
115 333.459 144
116 5099.96 60.8
117 1451.53 68
118 298.152 161
119 156.922 155
120 309.921 154
121 215.768 75.3
122 309.921 64.7
123 549.227 173
124 3334.59 45.8
125 863.071 123
126 549.227 123
127 470.766 166
128 380.536 166
129 203.998 139
130 66.6918 161
131 7.45379 44.9
132 25.1075 84.8
133 192.229 161
134 333.459 70.4
135 627.688 173
136 1.92229 51.6
137 21.5768 73.3
138 7.45379 174
139 470.766 132
140 145.153 69.9
141 15.6922 144
142 1922.29 97.9
143 392.305 155
144 588.457 104
145 117.691 149
146 509.996 157
147 286.382 166
148 333.459 89.8
149 392.305 79.1
150 6669.18 45.2
151 470.766 101
152 745.379 125
153 168.691 49.6
154 509.996 112
155 470.766 107
156 298.152 59.6
157 239.306 70.2
158 3923.05 100
159 3923.05 100
160 1059.22 46.3
161 1176.91 46.3
162 431.535 94.1
163 509.996 69.6
164 470.766 139
165 666.918 132

Dihedral Coeffs # harmonic

1 0.638145 -1 1
2 0.81501 -1 1
3 1.18786 -1 1
4 1.40057 -1 1
5 2.2347 -1 1
6 2.2586 -1 1
7 0.666826 1 1
8 1.27868 1 1
9 0.365679 -1 2
10 1.40057 -1 2
11 1.69933 -1 2
12 3.9914 -1 2
13 5.73614 -1 2
14 8.00669 -1 2
15 9.99044 -1 2
16 0 1 2
17 0.0999044 1 2
18 0.499522 1 2
19 0.750478 1 2
20 1.21654 1 2
21 3.9914 1 2
22 0.250956 1 3
23 0.301147 1 3
24 0.310707 1 3
25 0.604685 1 3
26 0.700287 1 3
27 0.762428 1 3
28 0.872371 1 3
29 0.901052 1 3
30 0.932122 1 3
31 0.999044 1 3
32 1.12094 1 3
33 1.30019 1 3
34 1.41491 1 3
35 1.83795 1 3
36 2.06023 1 3
37 2.27055 1 3
38 0 1 4
39 0.239006 -1 6
40 0.239006 1 6
41 0.901052 1 6
42 0.83652 -1 2
43 0.669216 1 3
44 0.167304 -1 6
45 0.0956023 1 6
46 0.239006 -1 3
47 0 1 1

Improper Coeffs # harmonic

1 20.0075 0
2 40.0151 35.2644
3 80.0302 0
4 20.0075 180
5 40.0151 -35.2644

Atoms # full

11907 982 56 0.652 4.000430644719213 6.564862927554274 3.66618324106131 1 0 0
9017 475 63 -0.2 5.723621750426646 5.833173338984671 7.44911357219164 0 0 1
9018 475 20 0.236 4.805253463011726 6.003612715927365 6.7971916303325965 0 0 1
9011 475 62 0.265 6.484937857533706 4.744668898679423 7.112894126275152 0 0 1
9015 475 63 -0.156 6.413000332249743 6.624250629597716 8.320364466513194 0 0 1
9014 475 62 0.049 7.6389428813772255 6.0030028557388935 8.497688204671334 0 0 1
9221 486 63 -0.099 2.345142940183067 4.298777359093209 10.661534167177106 0 0 0
9222 486 20 0.242 2.4653632686611857 4.166599360476599 9.588943903132524 0 0 0
9220 486 62 0.265 3.378885081379231 4.471322194485398 11.513322941170395 0 0 0
9008 475 64 -0.382 6.098347985791575 3.7964580148663596 6.043085665510799 0 0 1
9217 486 64 -0.382 4.73879645114858 4.67346324462532 11.187242527179171 0 0 0
10807 762 56 0.652 4.006516652369691 1.827464920479077 7.839444932152241 0 0 1
9223 486 62 0.049 1.2022290032860798 4.15103231112997 11.395219718615854 0 0 0
11906 982 31 -0.413 4.820394987834943 7.429401468486261 2.989853173535717 1 0 0
11910 982 31 -0.413 2.9198956745640396 6.341554583864423 2.889365946154574 1 0 0
11908 982 31 -0.413 3.588907373811366 7.221542902488697 4.890532307085953 1 0 0
10810 762 31 -0.413 3.86372321169557 3.153311366446318 7.985840181894774 0 0 1
2162 114 20 0.06900000000000001 2.7368628407335818 3.1473855175726024 5.529239572687601 0 0 0
4843 255 20 0.074 6.67334927098164 1.045053042940902 3.100800532097933 0 1 1
10809 762 31 -0.413 5.082702464922081 1.4851436410793926 8.60777471813447 0 0 1
9219 486 20 0.177 4.851449076689574 3.9978801823292573 10.314269581169295 0 0 0
11909 982 31 -0.413 4.677362879809817 5.363394312433493 4.046849830482066 1 0 0
9016 475 20 0.236 6.185716934162882 7.631805132220528 8.635597582524948 0 0 1
9007 475 20 0.177 6.61721067204177 4.067624566321403 5.107414937809735 0 0 1
9009 475 20 0.177 6.358543243444796 2.7327252517485254 6.348893889544875 0 0 1
4842 255 12 -0.186 5.608522916921491 0.9127151728946756 3.167080844516459 0 1 1
2163 114 12 -0.186 1.615489086550742 4.79489369010259 6.2364047039475 0 0 0
9012 475 63 -0.099 7.64109690130472 4.813621907969524 7.837704573119114 0 0 1
9010 475 20 0.177 4.982364594336063 3.8338580319870252 5.851675967660916 0 0 1
9021 475 20 0.06900000000000001 8.83919729397533 6.947725378114264 9.966535930361886 0 0 1
3551 187 20 0.074 15.980320945864088 0.4871872666561075 3.9048437563589706 0 0 0
4844 255 20 0.074 5.002138861423707 1.3461997265015349 2.3743775857127605 0 1 1
2160 114 64 0.104 1.846860213938322 3.7584140845040306 5.243257305423637 0 0 0
4845 255 20 0.074 5.379626170200314 1.523933087821434 3.987936841393379 0 1 1
5924 312 20 0.06900000000000001 1.410292371213433 8.32153431328414 6.9276942859828745 1 1 0
2164 114 20 0.074 2.371267549343662 5.581994375127545 6.200765810820351 0 0 0
6755 356 20 0.236 7.692166073343012 6.563845787382096 2.840094167328804 0 0 0
9216 486 20 0.177 4.8723129912804675 5.7382091154248 10.841758705827225 0 0 0
6756 356 63 -0.2 7.5871702723890655 7.652338751789123 0.8618323188139497 0 0 0
6754 356 63 -0.156 7.779725811531492 6.570996677266002 1.7009914722655115 0 0 0
5883 310 20 0.236 3.9583016750493365 1.4824296043690586 10.85036095564008 0 0 0
9218 486 20 0.177 5.414259953566299 4.406652410914784 11.976900021262749 0 0 0
10470 694 31 -0.413 8.110014233869368 3.6580411701204607 11.49283411986685 1 1 1
10806 762 31 -0.413 2.896769696249456 1.1861754183957836 8.290535382125684 0 0 1
2166 114 20 0.074 1.5793303125071478 4.377297215673188 7.16693229435996 0 0 0
2161 114 20 0.06900000000000001 2.0280197035036354 4.155560902978465 4.258005426326577 0 0 0
2157 114 20 0.236 0.84333887649535 1.8463806908055311 7.03089222041109 0 0 0
5073 267 20 0.074 6.94366163775104 1.0760077530554 10.339729537564637 1 0 0
2155 114 62 0.049 0.7492054117436645 2.77113803890082 5.140645177342868 0 0 0
5070 267 12 -0.186 8.019323492398843 0.7287065298785705 10.440516634777424 1 0 0
5882 310 63 -0.2 3.991125399031051 0.7723866637489656 11.693479430199096 0 0 0
10201 641 31 -0.413 3.0244025907640175 6.995004380240741 8.680223808029984 0 0 0
6757 356 20 0.236 6.992555332624817 8.572301956813117 0.9509420747324249 0 0 0
5922 312 64 0.104 0.6505035853017134 8.242704783771046 6.101787105821475 1 1 0
80 5 20 0.177 5.736315462397653 8.258249490846344 5.535107922933468 0 0 0
4083 215 20 0.074 5.867476140623375 3.599453387893804 1.3615648912094267 0 0 1
10204 641 31 -0.413 4.139230180655498 8.074850247327204 10.4666170420564 0 0 0
9745 549 31 -0.413 8.788413668671145 1.1804352670350549 1.8338302349783533 0 0 1
9013 475 20 0.242 8.34362855552374 4.012369237518477 7.907795535124921 0 0 1
1752 93 20 0.177 0.36907697168959724 11.65523753465892 12.522744355472728 0 0 0
10420 684 31 -0.413 15.415139619731276 22.504098620507783 0.32876043673553645 0 0 1
5065 267 63 -0.2 7.870710630153588 0.5592461116647193 5.883624596007974 1 0 0
2156 114 63 -0.156 0.28985192214516164 1.985904496920668 6.126116140963833 0 0 0
2509 133 20 0.177 7.768919750766395 13.377172570122417 0.43921100013353737 0 0 0
2681 142 64 -0.382 14.682767723580675 3.0562172110396464 0.2382651042109924 0 1 0
6441 339 20 0.074 24.71332593889295 2.1352473000400116 5.78587307918912 1 1 0
1769 94 64 -0.382 0.743386218569422 5.337849371901012 0.8516848235653632 0 0 0
5066 267 20 0.236 7.557216042219245 0.5155984707740475 4.8535229103549264 1 0 0
4085 215 20 0.074 4.42775796315927 4.09590042049002 0.46997097254514597 0 0 1
10808 762 31 -0.413 4.167515899038987 1.4538957709694347 6.528117342802786 0 0 1
11575 915 31 -0.413 2.2374971659507117 2.329340428533138 0.3314382216931796 0 1 1
5419 286 20 0.177 24.967792489976365 15.859292624561807 12.011725480340928 0 0 0
11507 902 56 0.652 8.076484193621855 17.753480817338662 0.21748037835502637 0 0 0
1768 94 20 0.177 0.9545407453435086 5.905651895035525 1.7444501861557802 0 0 0
4082 215 12 -0.186 5.486865777703383 4.181967080071047 0.5495785786370648 0 0 1
4084 215 20 0.074 5.673811703635675 5.1874370956844675 0.7111669916167225 0 0 1
11699 940 31 -0.413 24.80558140271973 13.006692413980053 11.82263660549721 0 0 0
9019 475 64 0.104 8.862931950626614 6.688034082942644 8.938652225211012 0 0 1
5072 267 20 0.074 8.648585515482393 1.6135048315683032 10.537488231984401 1 0 0
9020 475 20 0.06900000000000001 9.596072685075262 5.899954350223755 8.823234306474163 0 0 1
11678 936 31 -0.413 12.642213606525777 0.6570629217396533 6.38168164749229 0 0 0
3058 161 20 0.074 23.04025586040346 0.38301336153692295 11.056804467698065 1 1 0
10951 791 31 -0.413 9.002210616636487 4.208100816866909 4.739241856981283 0 0 0
10468 694 31 -0.413 9.816397558771047 5.265700570452381 11.666177512901884 1 1 1
5060 267 63 -0.099 9.431702468342344 0.9610550795434643 7.370416167092109 1 0 0
10467 694 56 0.652 9.493384715609983 3.925420966754331 11.286158317937062 1 1 1
5058 267 20 0.177 9.492211114849667 1.8779486471267117 4.198259038561833 1 0 0
2691 142 20 0.236 13.18252420616838 1.0370354435921638 1.4712435707126967 0 1 0
6758 356 64 0.104 9.00788110919406 4.352480445197363 1.4881643865235272 0 0 0
5059 267 62 0.265 9.127603036186853 1.0828100685986224 6.098290279139796 1 0 0
929 49 20 0.074 13.176762411930602 2.3309107868643686 11.810129550883529 0 0 0
10469 694 31 -0.413 10.326712138471155 3.07696730790981 11.980304586812974 1 1 1
10466 694 31 -0.413 9.767584070101158 3.7988743779711704 9.909869910904646 1 1 1
10954 791 31 -0.413 10.755041359267336 4.525577263283833 6.117289155263019 0 0 0
10953 791 31 -0.413 10.91630681219693 5.159519445908319 3.8025315729513336 0 0 0
5056 267 64 -0.382 10.029312957489042 1.554897059797009 5.097610785169756 1 0 0
10955 791 31 -0.413 9.63094567136438 6.337805039288593 5.342531088630628 0 0 0
2688 142 63 -0.156 13.28350152799957 2.1037545849468637 3.426899752493086 0 1 0
2687 142 62 0.049 13.880597323859904 3.251178423947847 3.793804381440982 0 1 0
2690 142 63 -0.2 13.439019811567738 1.9552824740642754 2.054797212381434 0 1 0
2685 142 63 -0.099 14.532749062404148 3.758949713990695 2.708551623510398 0 1 0
10952 791 56 0.652 10.117816611984159 5.073127357182483 5.017755004747392 0 0 0
4738 250 20 0.242 12.597200347377951 5.3759970907711985 7.334105144210317 0 0 0
4737 250 63 -0.099 12.572221044761942 5.993822987864223 8.266685790275215 0 0 0
4747 250 12 -0.186 12.447525150520466 3.1638439847983246 8.967197521357322 0 0 0
4744 250 64 0.104 12.823416384718582 4.196569727038693 10.025135871564226 0 0 0
4739 250 62 0.049 12.503199675264108 5.560283395247159 9.579770439446131 0 0 0
4740 250 63 -0.156 12.459901953479093 6.621382832683073 10.409148422968276 0 0 0
4746 250 20 0.06900000000000001 13.848459135687627 4.276136196188903 10.322378079369226 0 0 0
4745 250 20 0.06900000000000001 12.289373296766971 4.0800172046773895 10.94742833198465 0 0 0
4750 250 20 0.074 11.554177405134128 3.3293764495562805 8.4486547640019 0 0 0
4748 250 20 0.074 13.149895994784305 2.995565728938758 8.19028913003354 0 0 0
4749 250 20 0.074 12.225883603625995 2.161443302939665 9.517375273797285 0 0 0
925 49 64 0.104 15.307539111201647 2.5043166418434173 12.220825126061913 0 0 0
4741 250 20 0.236 12.099529374667457 6.4965905196717255 11.481911386817 0 0 0
2684 142 62 0.265 14.213240766373277 2.979013870504856 1.6277699725433483 0 1 0
2686 142 20 0.242 15.3056889425573 4.4666427454047355 2.597458237866532 0 1 0
5061 267 20 0.242 10.405737211986645 1.0761713482790611 7.878195044911123 1 0 0
3104 164 20 0.242 24.50831872688437 17.172362181637705 3.2180030331137974 0 0 1
2692 142 64 0.104 14.009625543415433 3.795314781125722 5.104508042256857 0 1 0
2693 142 20 0.06900000000000001 13.029225334613384 3.7655850227011998 5.558560124840885 0 1 0
5055 267 20 0.177 10.804210435863489 2.366529578747813 5.323527176029893 1 0 0
2689 142 20 0.236 12.702571551575364 1.4017074299070729 4.062538440876354 0 1 0
1420 75 20 0.06900000000000001 14.259436107783952 6.321822894495737 3.509691795461649 0 1 0
2694 142 20 0.06900000000000001 14.342374064323437 4.815009768570179 5.161269411637373 0 1 0
1416 75 20 0.236 12.121175729574698 6.698887459289929 2.1824443697782514 0 1 0
6753 356 62 0.049 8.667156150454192 5.6899569590062855 1.1090151447868861 0 0 0
6760 356 20 0.06900000000000001 9.139654102969477 4.317817488009052 2.5515599533078688 0 0 0
1415 75 63 -0.156 12.052437856819486 7.502779564257546 2.83403007462798 0 1 0
10036 608 31 -0.413 16.369056992741406 7.359522366433513 7.046554982353543 0 1 0
1419 75 64 0.104 14.472697727084407 7.32205702712281 3.8000735233799365 0 1 0
6761 356 12 -0.186 10.239788868882151 3.748785446358321 0.7721462807990361 0 0 0
6762 356 20 0.074 10.61492569716331 2.894066273144556 1.3082205387071366 0 0 0
6764 356 20 0.074 11.084681851364724 4.513448389480538 0.5271791064543456 0 0 0
1421 75 20 0.06900000000000001 14.750389001912241 7.248857595880794 4.889496112202876 0 1 0
1422 75 12 -0.186 15.69404807103827 7.661232493941592 2.962858314372767 0 1 0
922 49 20 0.236 15.952670958184651 3.353248903956427 9.520348719977454 0 0 0
921 49 63 -0.156 15.749841430712227 2.2980117320127382 9.71110800512297 0 0 0
2695 142 12 -0.186 14.951987601756151 3.0025294564776575 5.918996104112388 0 1 0
1414 75 62 0.049 13.142715872649054 8.048536666516583 3.521541181926889 0 1 0
1423 75 20 0.074 15.448913568832353 7.6907231627405555 1.8748326623241625 0 1 0
2698 142 20 0.074 14.552055692224036 1.9873938036386367 6.096776503459164 0 1 0
10039 608 31 -0.413 16.9394649530119 5.310612764773232 6.099664591340175 0 1 0
10037 608 56 0.652 16.825751883973005 6.0649846991458976 7.2779209608817315 0 1 0
9379 494 20 0.236 16.01821794422124 7.448987490276473 9.87861622662334 0 0 0
2696 142 20 0.074 15.884039596299708 3.015238854959366 5.37801965905238 0 1 0
1418 75 20 0.236 10.108540784962507 8.505852069007641 2.2900946151750214 0 1 0
2697 142 20 0.074 15.031904972267212 3.5397622455011177 6.910122227647736 0 1 0
1417 75 63 -0.2 10.97638415479364 8.367007487070044 3.0033735635381476 0 1 0
4736 250 62 0.265 12.599230831299051 7.362784651359768 8.27546408904193 0 0 0
4734 250 20 0.177 12.126415119208016 7.677156006804292 6.305401257610325 0 0 0
920 49 62 0.049 15.854051761056027 1.8155548491101412 11.008152085927039 0 0 0
10040 608 31 -0.413 15.87302960457464 5.4405920868030595 8.135651517372557 0 1 0
4422 233 20 0.06900000000000001 2.6248869059376108 24.31030005370241 0.35297556833482696 0 0 1
4742 250 63 -0.2 12.595504385711294 7.777823695399987 9.598384739919624 0 0 0
4732 250 20 0.177 13.666766934685144 8.384120494724876 6.696452920222728 0 0 0
4733 250 64 -0.382 12.617517665908307 8.176591926041693 7.0470690745978235 0 0 0
6759 356 20 0.06900000000000001 8.098558588059142 3.7717436207920314 1.463490569514647 0 0 0
926 49 20 0.06900000000000001 15.331834464734792 3.61269515694055 11.996689452781942 0 0 0
7688 405 20 0.236 16.974402297697413 10.528326909047795 0.7479446392818235 0 0 1
5057 267 20 0.177 10.57050063728218 0.7096311395179409 4.839998187297886 1 0 0
2380 126 62 0.265 13.369683520514473 24.877792469753498 5.888340657930664 0 0 0
7343 387 63 -0.156 0.1764932046548129 16.68255848668827 5.279169926591296 1 0 0
3057 161 20 0.074 21.448824132506587 0.4303463189039513 11.380085055954947 1 1 0
3101 164 20 0.177 24.72721014905796 19.38865251592806 4.607689564353153 0 0 1
9865 573 31 -0.413 17.29807884919288 4.753334446899045 0.283514847029802 0 0 1
924 49 20 0.236 15.860710731622419 1.0974133112073279 7.816159958672821 0 0 0
923 49 63 -0.2 15.985244948205686 1.2518211142391917 8.904665897005225 0 0 0
11551 911 31 -0.413 5.360213456038635 24.75161612326642 7.707690658865228 0 0 0
11202 841 56 0.652 19.884031121731983 0.2918077205019467 6.946223662163128 0 1 1
1425 75 20 0.074 16.472952189852304 6.847076933344938 3.233798951810302 0 1 0
8194 432 62 0.265 19.397304835606864 0.5710548701794722 2.6539685158354125 0 1 1
6436 339 20 0.06900000000000001 24.076473364030253 1.8607455782463704 8.394600257191472 1 1 0
8201 432 20 0.236 17.43770265922691 1.0399023988773393 1.8915567772901107 0 1 1
2220 117 12 -0.186 21.479014861129926 7.492166784722946 0.3630718871294134 0 0 1
5800 306 62 0.265 23.260425115694726 5.617884735733144 3.603881790318706 0 0 1
5802 306 20 0.242 23.07377826274193 7.307168162625928 4.982412927461204 0 0 1
2281 121 20 0.177 20.08565469042191 6.1764989212419215 10.662577210044239 0 0 1
11201 841 31 -0.413 19.994639286821585 1.600604364539584 6.600066206386524 0 1 1
10038 608 31 -0.413 18.11029651769857 6.213564573446566 7.889228855834375 0 1 0
9862 573 56 0.652 18.196615296898322 4.069966507211852 1.11116093356154 0 0 1
11221 845 31 -0.413 22.713473891271956 1.567227726390531 2.2502553836146766 0 0 0
8190 432 20 0.177 19.058187176823314 2.381400545280461 3.305405972847301 0 1 1
5806 306 63 -0.2 22.308392837979017 4.77445187653899 3.0888564707906787 0 0 1
6432 339 20 0.236 23.15951848126244 5.541377318273053 7.677775750716712 1 1 0
5804 306 63 -0.156 21.117034393563685 5.2016255371309805 3.57148825238661 0 0 1
5805 306 20 0.236 20.142394981710478 4.700078942279507 3.530837373404599 0 0 1
6423 339 20 0.177 18.522887542468965 4.363016700790073 9.240889653999036 1 1 0
6426 339 20 0.177 19.31596597237479 3.6055629417747532 10.535632312538592 1 1 0
5803 306 62 0.049 21.36423159624912 6.297723110324539 4.394642916599335 0 0 1
5808 306 64 0.104 20.25731072673912 6.992893404460533 5.191302790681472 0 0 1
6434 339 20 0.236 20.57341268586189 5.938611168361691 8.426785026754622 1 1 0
6425 339 20 0.177 18.818722109801538 2.58934411211008 9.187172520038816 1 1 0
6424 339 64 -0.382 19.296679348255328 3.6181785403527416 9.47430065808044 1 1 0
6433 339 63 -0.2 21.20338348022631 5.056592929626768 8.56277003212593 1 1 0
6427 339 62 0.265 20.66882488613259 3.8504499571651154 8.934633556290558 1 1 0
6429 339 20 0.242 21.51871824769526 1.8565462032705489 9.286907186964118 1 1 0
6428 339 63 -0.099 21.626560547965358 2.8974511975682886 8.921726476068283 1 1 0
6430 339 62 0.049 22.76293498711807 3.481451607039265 8.416903536449192 1 1 0
5810 306 20 0.06900000000000001 20.218538821623614 6.43676201209279 6.104295351873536 0 0 1
6431 339 63 -0.156 22.51377452842795 4.828563538484734 8.227996001867325 1 1 0
5801 306 63 -0.099 22.662287748352167 6.523981532960714 4.403111600344059 0 0 1
8191 432 64 -0.382 19.430913029662335 1.4892034026795067 3.8065472819541433 0 1 1
6435 339 64 0.104 23.926121373568087 2.77460214303418 7.7878810152876445 1 1 0
6438 339 12 -0.186 23.78735505313956 2.5342851130527895 6.2276409754205195 1 1 0
8193 432 20 0.177 20.484394373491682 1.6811842775274801 4.134897438321673 0 1 1
5809 306 20 0.06900000000000001 20.67651778929348 7.9696107107104375 5.453847833022342 0 0 1
5811 306 12 -0.186 18.866394171224837 7.076496213332994 4.56642343313535 0 0 1
5813 306 20 0.074 18.600589496085583 6.131481636577626 3.9925594229826644 0 0 1
6439 339 20 0.074 22.984628529122492 1.9002254549754545 5.968229977808111 1 1 0
9864 573 31 -0.413 19.098417613503255 4.939268663358998 1.6139363308789645 0 0 1
2292 121 20 0.236 17.69845797478118 4.927336043577537 11.776677449507469 0 0 1
5807 306 20 0.236 22.506106000085826 3.930760913287673 2.3592569970872437 0 0 1
9861 573 31 -0.413 17.42698437502853 3.5100533580163744 2.2171454108897137 0 0 1
5814 306 20 0.074 18.08820323375653 7.17174107561818 5.2760642899734975 0 0 1
11222 845 56 0.652 23.72065454156288 0.5611334515906603 2.2635690371429713 0 0 0
2219 117 20 0.06900000000000001 21.561365526121822 5.320324874840895 0.3824333596540584 0 0 1
8192 432 20 0.177 18.795038863635043 1.1818012994000477 4.617022107313618 0 1 1
2222 117 20 0.074 20.407191672385828 7.6658006052312775 0.2759258088649838 0 0 1
5797 306 64 -0.382 24.567919451107056 5.839080565751281 2.935926013709543 0 0 1
11120 824 31 -0.413 22.23837606863236 7.588856608788961 9.46771134756045 0 0 1
11713 943 31 -0.413 18.88895590395052 1.4921918047042746 11.554169618885988 0 0 0
8200 432 63 -0.2 18.218458833556856 0.2392452402408055 2.011896407357401 0 1 1
6125 323 20 0.242 6.841521403701537 7.918248134719898 12.418006745167258 0 0 0
2118 112 63 -0.156 24.683693565014977 8.131959903741079 11.480274900562533 0 0 0
2283 121 20 0.177 20.772328131806727 7.24122985359499 11.771881957516097 0 0 1
2119 112 20 0.236 23.667183330103335 8.107948305721228 11.116159717222091 0 0 0
5812 306 20 0.074 18.836347584612916 7.9523277282246445 3.9519084557877995 0 0 1
2284 121 20 0.177 21.12846606325624 5.478249931246398 11.782947046465656 0 0 1
2291 121 63 -0.2 17.964769532614074 5.611917350463596 12.537718706026512 0 0 1
2282 121 64 -0.382 20.347932926164866 6.264442575350267 11.66279015629847 0 0 1
7298 385 64 -0.382 5.021498947309846 24.236904735289492 12.373631403228742 1 0 0
8866 467 20 0.236 24.957834011602014 13.618595451944017 0.17174508003479566 0 0 0
7678 405 64 -0.382 16.37608911814572 13.24084768393812 0.667468663089054 0 0 1
11118 824 31 -0.413 20.855168718660433 8.642085260537716 7.999424108526071 0 0 1
11116 824 31 -0.413 22.886344094524144 7.948325431819497 7.302557595903082 0 0 1
9368 494 20 0.177 19.21881218477681 8.187451677914371 9.57090501205155 0 0 0
6440 339 20 0.074 23.624697125922175 3.5017607792639653 5.696191754519112 1 1 0
685 37 20 0.177 9.298008918188229 18.726097482421 12.23608689716333 0 0 0
7685 405 63 -0.156 14.888120151709854 9.952982052114603 0.2845574479986081 0 0 1
10397 680 56 0.652 12.653978203165915 11.559868243061926 12.289390876746271 0 0 0
2128 112 20 0.074 23.636623809883677 5.114893647646511 11.712208934949835 0 0 0
8769 462 20 0.236 4.7031723666571805 24.778128290988196 2.905201369981167 1 0 0
79 5 20 0.177 7.071608410056506 9.227354731781988 6.123013071142678 0 0 0
4950 261 20 0.236 2.7653469596298232 9.047131595957135 2.2886154080056627 1 0 0
10202 641 56 0.652 3.2773218696193585 8.259718573094835 9.319147583938282 0 0 0