LAMMPS data file via write_data, version 2 Aug 2023, timestep = 1167, units = real

12000 atoms
69 atom types
11500 bonds
258 bond types
19500 angles
165 angle types
20500 dihedrals
47 dihedral types
2500 impropers
5 improper types

-1.8298235857594385 51.829823585759485 xlo xhi
-1.8298235857594385 51.829823585759485 ylo yhi
-1.8298235857594385 51.829823585759485 zlo zhi

Masses

1 15.9994
2 15.9994
3 15.9994
4 15.9994
5 15.9994
6 14.0067
7 14.0067
8 14.0067
9 14.0067
10 14.0067
11 14.0067
12 12.011
13 12.011
14 13.019
15 14.027
16 15.035
17 16.043
18 14.027
19 12.011
20 1.008
21 1.008
22 1
23 32.06
24 63.546
25 63.546
26 55.847
27 65.37
28 24.305
29 40.08
30 39.948
31 18.9984
32 35.453
33 79.904
34 12.011
35 15.9994
36 22.9898
37 35.453
38 12.011
39 35.453
40 1.008
41 32.06
42 12.011
43 15.9994
44 12.011
45 35.453
46 18.9984
47 12.011
48 13.019
49 15.9994
50 12.011
51 15.9994
52 14.0067
53 15.035
54 126.90447
55 35.453
56 10.811
57 78.95999999999999
58 1.008
59 35.453
60 79.904
61 15.9994
62 14.0067
63 12.011
64 12.011
65 14.0067
66 14.0067
67 15.9994
68 28.08
69 30.9738

Pair Coeffs # lj/cut/coul/long

1 0.305714 2.76007
2 0.412295 2.62585
3 0.203061 2.95484
4 0.252656 2.84916
5 0.155394 3.16565
6 0.152915 3.13647
7 0.0700622 3.5722
8 0.152915 3.13647
9 0.104651 3.34113
10 0.152915 3.13647
11 0.152915 3.13647
12 0.0663015 3.58118
13 0.00167194 6.63949
14 0.0226791 5.01918
15 0.098122 4.07038
16 0.207254 3.74792
17 0.302012 3.70995
18 0.11455 3.95474
19 0.120138 3.74119
20 0.0282937 2.37341
21 0 0
22 0 0
23 0.455513 3.30769
24 2.039 1.5184
25 2.039 1.5184
26 0 0
27 1.107 1.68112
28 0.0747249 1.93323
29 0.121156 2.81311
30 0.238148 3.40984
31 0.10897 2.94006
32 0.300087 3.46982
33 0.69792 3.6508
34 0.243126 3.60124
35 0.131455 3.17694
36 0.00509651 3.12117
37 0.162149 4.09571
38 0.101741 3.40006
39 0.299511 3.44
40 0.0197496 2.20219
41 0.310038 3.55995
42 0.207254 3.74792
43 0.409923 2.63004
44 0.0544087 3.7739
45 0.270582 3.44757
46 0.0828967 3.07717
47 0.0970049 3.3611
48 0.117014 3.91992
49 0.203061 2.95484
50 0.105027 3.74991
51 0.210013 2.95998
52 0.169966 3.25006
53 0.207254 3.74792
54 0.836845 3.84961
55 0.329921 3.26983
56 0.0663015 3.58118
57 0.455513 3.30769
58 0 0
59 0.329921 3.26983
60 0.580843 3.89995
61 0.119432 3.40025
62 0.1399 3.9019
63 0.0734574 3.52053
64 0.245018 2.81144
65 0.142655 4.06776
66 0.219779 3.64529
67 0.119497 3.1
68 0.584786 3.38557
69 0.584786 3.38557

Bond Coeffs # harmonic

1 375.239 1
2 446.941 1
3 349.274 1.09
4 1109.29 1.12
5 600.242 1.23
6 500.418 1.25
7 499.732 1.32
8 375.003 1.33
9 448.144 1.33
10 498.877 1.33
11 450.617 1.34
12 502.116 1.34
13 450.906 1.36
14 500.679 1.38
15 399.904 1.39
16 498.726 1.39
17 400.057 1.4
18 399.792 1.43
19 450.132 1.43
20 300.222 1.435
21 449.843 1.47
22 299.976 1.48
23 399.968 1.48
24 450.226 1.48
25 450.108 1.5
26 299.844 1.52
27 400.034 1.53
28 299.851 1.61
29 299.727 1.63
30 205.976 1.78
31 449.816 1.78
32 449.828 1.83
33 300.045 1.87
34 59.9679 1.98
35 60.0382 2
36 500.307 2.04
37 63.0357 2.21
38 554.493 1
39 349.928 1.1
40 599.794 1.758
41 449.829 1.53
42 444.341 1.93799
43 599.679 1.76
44 501.026 1.265
45 448.656 1.35
46 555.129 1.63299
47 350.249 2.33839
48 600.161 2.90283
49 445.884 2.79388
50 443.815 2.91189
51 409.328 2.077
52 600.173 2.87407
53 88.4321 1.1
54 56.1663 1.84
55 513.862 1.01
56 310.707 1.41
57 442.161 1.02
58 239.006 1.46
59 513.862 1.29
60 442.161 0.972
61 812.62 1.22
62 466.061 1.22
63 239.006 1.54
64 179.254 1.56
65 227.055 1.54
66 106.358 1.76
67 131.453 1.69
68 203.155 1.75
69 203.155 1.51
70 143.403 1.57
71 179.254 0.971
72 191.205 1.5
73 262.906 1.45
74 549.713 1.52
75 83.652 1.03
76 191.205 1.74
77 191.205 1.72
78 227.055 1.64
79 203.155 1.67
80 191.205 1.66
81 215.105 1.65
82 513.862 1.31
83 155.354 1.01
84 35.8509 1.89
85 101.577 1.93
86 155.354 1.36
87 167.304 1.79
88 114.723 1.35
89 155.354 1.39
90 203.155 1.38
91 227.055 0.983
92 155.354 1.3
93 418.26 1.08
94 155.354 1.9
95 1314.53 1.16
96 143.403 1.8
97 155.354 1.42
98 478.011 0.984
99 119.503 1.08
100 119.503 1.91
101 418.26 1.03
102 525.813 1.28
103 131.453 1.22
104 143.403 1.11
105 1195.03 1.21
106 466.061 1.07
107 956.023 1.21
108 693.117 1.21
109 87.2371 1.85
110 394.359 1.11
111 109.943 2.09
112 131.453 1.82
113 99.1874 1.96
114 56.1663 1.86
115 167.304 1.21
116 167.304 1.28
117 143.403 1.71
118 131.453 1.6
119 454.111 1.21
120 41.826 1.61
121 131.453 1.94
122 155.354 1.59
123 143.403 2.1
124 119.503 2.12
125 57.3614 2.13
126 203.155 1.26
127 1195.03 1.14
128 191.205 1.23
129 788.719 1.3
130 239.006 1.31
131 59.7514 2.04
132 82.457 1.34
133 621.415 0.938
134 310.707 1.16
135 34.6558 2.07
136 60.9465 1.16
137 93.2122 2.16
138 43.021 2.23
139 23.9006 2.05
140 896.272 1.19
141 728.967 1.47
142 394.359 1.57
143 1195.03 1.18
144 54.9713 1.87
145 1063.58 1.17
146 215.105 1.13
147 59.7514 2.02
148 179.254 1.07
149 250.956 1.14
150 155.354 1.06
151 537.763 1.46
152 812.62 1.17
153 92.0172 2.15
154 239.006 1.04
155 60.9465 1.4
156 1314.53 1.11
157 466.061 1.56
158 752.868 1.49
159 501.912 1.54
160 35.8509 2.17
161 35.8509 2.27
162 669.216 1.45
163 764.818 1.25
164 848.47 1.27
165 561.663 1.16
166 1434.03 1.14
167 501.912 1.17
168 537.763 1.19
169 920.172 1.14
170 227.055 1.24
171 1434.03 1.13
172 89.6272 2.91
173 57.3614 2.24
174 418.26 0.743
175 239.006 1.2
176 111.138 2.33
177 96.7973 2.42
178 83.652 1.32
179 1159.18 1.2
180 1314.53 1.2
181 430.21 1.58
182 53.7763 1.47
183 1.55354 2.77
184 5.13862 2.25
185 100.382 2.18
186 50.1912 1.52
187 93.2122 2.19
188 27.4857 1.48
189 1912.05 1.07
190 8.60421 2.8
191 87.2371 2.52
192 0.669216 2.79
193 812.62 1.16
194 1.79254 2.68
195 406.31 1.59
196 119.503 1.18
197 34.6558 2.54
198 1792.54 1.1
199 824.57 1.29
200 33.4608 2.44
201 107.553 2.41
202 112.333 2.36
203 20.3155 1.43
204 2.27055 2.57
205 19.1205 2.47
206 0.764818 2.71
207 1553.54 1.12
208 3.70459 2.75
209 501.912 1.14
210 0.717017 2.86
211 10.5163 2.64
212 1912.05 0.985
213 1.91205 2.61
214 7.40918 2.62
215 59.7514 2.46
216 3.58509 2.66
217 1.31453 2.72
218 58.5564 1.63
219 573.614 1.12
220 37.0459 2.32
221 16.7304 1.44
222 1553.54 1.16
223 7.17017 2.69
224 10.0382 2.49
225 3.22658 2.92
226 0.82457 2.29
227 9.79924 2.4
228 1.03967 2.37
229 1.55354 2.94
230 5.85564 2.95
231 1.67304 2.96
232 0.0131453 2.56
233 5.25813 2.59
234 15.5354 2.38
235 836.52 1.12
236 1.91205 2.5
237 2.39006 2.3
238 585.564 1.04
239 3.34608 2.99
240 0.967973 2.34
241 1.07553 2.98
242 2.27055 2.74
243 1063.58 1.16
244 812.62 1.5
245 1.31453 2.84
246 0.322658 2.82
247 908.222 1.23
248 466.061 1.05
249 3.34608 2.88
250 1434.03 1.18
251 1673.04 1.15
252 6.33365 2.9
253 1027.72 1.24
254 418.26 1.9
255 2270.55 1.08
256 1434.03 1.21
257 764.818 0.975
258 0 0

Angle Coeffs # harmonic

1 45.3116 90
2 50.0917 90
3 47.7712 96
4 54.9551 100
5 47.5559 103
6 55.0345 104
7 50.1709 108
8 30.1731 109.5
9 33.8897 109.5
10 40.2609 109.5
11 45.0394 109.5
12 47.694 109.5
13 55.1272 109.5
14 47.635 109.6
15 55.1139 111
16 55.0997 113
17 4.824 115
18 45.0699 115
19 59.7937 115
20 44.8085 116
21 59.7719 116
22 60.1639 117
23 34.88 120
24 39.8095 120
25 45.1871 120
26 47.4278 120
27 50.1166 120
28 59.9756 120
29 69.8346 120
30 60.0726 121
31 60.091 122
32 34.8146 123
33 59.8929 124
34 30.0075 125
35 60.0779 125
36 44.9139 126
37 49.998 126
38 60.166 126
39 50.1189 132
40 47.5187 155
41 28.4971 180
42 45.9951 109.5
43 52.4767 107.57
44 65.472 111.3
45 55.0189 97.4
46 55.0247 106.75
47 47.5019 108.53
48 65.5335 109.5
49 54.9566 107.6
50 47.4817 109.5
51 54.9931 110.3
52 55.0234 111.4
53 60.044 117.2
54 60.0023 121.4
55 48.24 180
56 180.46 109
57 192.229 106
58 145.153 126
59 145.153 96.2
60 156.922 114
61 203.998 119
62 239.306 130
63 298.152 107
64 156.922 134
65 239.306 101
66 286.382 113
67 368.766 134
68 356.997 119
69 333.459 126
70 251.075 89.6
71 380.536 114
72 286.382 135
73 145.153 88.3
74 133.384 60
75 380.536 179
76 251.075 180
77 470.766 178
78 47.0766 59.9
79 47.0766 60.3
80 251.075 124
81 706.149 118
82 117.691 144
83 627.688 123
84 470.766 118
85 333.459 94.8
86 90.2301 175
87 156.922 82.8
88 117.691 77.6
89 239.306 145
90 251.075 50.8
91 380.536 104
92 262.844 84.4
93 215.768 63.3
94 215.768 61
95 298.152 173
96 192.229 173
97 82.384 50.9
98 431.535 127
99 62.7688 67.8
100 156.922 180
101 588.457 118
102 30.1731 110
103 227.537 94.8
104 431.535 173
105 34.5228 78.5
106 70.6149 138
107 70.6149 168
108 156.922 167
109 18.046 149
110 333.459 144
111 356.997 148
112 321.69 144
113 356.997 148
114 321.69 147
115 333.459 144
116 5099.96 60.8
117 1451.53 68
118 298.152 161
119 156.922 155
120 309.921 154
121 215.768 75.3
122 309.921 64.7
123 549.227 173
124 3334.59 45.8
125 863.071 123
126 549.227 123
127 470.766 166
128 380.536 166
129 203.998 139
130 66.6918 161
131 7.45379 44.9
132 25.1075 84.8
133 192.229 161
134 333.459 70.4
135 627.688 173
136 1.92229 51.6
137 21.5768 73.3
138 7.45379 174
139 470.766 132
140 145.153 69.9
141 15.6922 144
142 1922.29 97.9
143 392.305 155
144 588.457 104
145 117.691 149
146 509.996 157
147 286.382 166
148 333.459 89.8
149 392.305 79.1
150 6669.18 45.2
151 470.766 101
152 745.379 125
153 168.691 49.6
154 509.996 112
155 470.766 107
156 298.152 59.6
157 239.306 70.2
158 3923.05 100
159 3923.05 100
160 1059.22 46.3
161 1176.91 46.3
162 431.535 94.1
163 509.996 69.6
164 470.766 139
165 666.918 132

Dihedral Coeffs # harmonic

1 0.638145 -1 1
2 0.81501 -1 1
3 1.18786 -1 1
4 1.40057 -1 1
5 2.2347 -1 1
6 2.2586 -1 1
7 0.666826 1 1
8 1.27868 1 1
9 0.365679 -1 2
10 1.40057 -1 2
11 1.69933 -1 2
12 3.9914 -1 2
13 5.73614 -1 2
14 8.00669 -1 2
15 9.99044 -1 2
16 0 1 2
17 0.0999044 1 2
18 0.499522 1 2
19 0.750478 1 2
20 1.21654 1 2
21 3.9914 1 2
22 0.250956 1 3
23 0.301147 1 3
24 0.310707 1 3
25 0.604685 1 3
26 0.700287 1 3
27 0.762428 1 3
28 0.872371 1 3
29 0.901052 1 3
30 0.932122 1 3
31 0.999044 1 3
32 1.12094 1 3
33 1.30019 1 3
34 1.41491 1 3
35 1.83795 1 3
36 2.06023 1 3
37 2.27055 1 3
38 0 1 4
39 0.239006 -1 6
40 0.239006 1 6
41 0.901052 1 6
42 0.83652 -1 2
43 0.669216 1 3
44 0.167304 -1 6
45 0.0956023 1 6
46 0.239006 -1 3
47 0 1 1

Improper Coeffs # harmonic

1 20.0075 0
2 40.0151 35.2644
3 80.0302 0
4 20.0075 180
5 40.0151 -35.2644

Atoms # full

95 5 20 0.074 3.3686317740013267 4.216309106028543 6.885553320419951 0 0 0
7304 385 62 0.049 -1.737726075422231 22.079884594389327 18.865696622332283 1 0 0
1699 90 62 0.049 1.966249729654908 -0.9051715017929121 -1.215619128546004 0 0 0
1704 90 64 0.104 3.3113566639695433 -0.5720184619601079 -0.6732353755397968 0 0 0
1705 90 20 0.06900000000000001 3.2920639126450757 -0.6889156366051636 0.41546033466462784 0 0 0
1706 90 20 0.06900000000000001 3.4423163439450253 0.49124714117646784 -0.875608642506696 0 0 0
1709 90 20 0.074 5.42636237057027 -1.1659049407270308 -0.9418067048474356 0 0 0
2837 150 63 -0.099 0.16509461064199016 0.3673761484305089 6.800621914886269 0 0 0
2838 150 20 0.242 -0.8454193951733422 0.4586124773847722 6.416350175183835 0 0 0
2839 150 62 0.049 1.2506032357307393 0.8832750972127714 6.2045559326090105 0 0 0
2840 150 63 -0.156 2.3233794356695237 0.5703710584478912 7.035941638683832 0 0 0
2841 150 20 0.236 3.3430989604714583 0.48938959061972254 6.669717283391821 0 0 0
2844 150 64 0.104 1.4070110691693491 1.076481971855706 4.674285337955624 0 0 0
2846 150 20 0.06900000000000001 1.5078443766766623 2.129653459102529 4.396729683192594 0 0 0
4656 246 20 0.177 7.218031437036382 5.414632958722708 7.14790292568266 0 0 0
957 51 20 0.242 1.9994724946680065 9.863156737893567 -0.4174181519793722 0 0 0
1250 66 20 0.06900000000000001 23.837541689633237 19.524158589100317 15.942428281890688 0 0 0
2845 150 20 0.06900000000000001 2.382247776368702 0.6712873744451255 4.487622123489936 0 0 0
11888 978 31 -0.413 4.988141551433657 2.466167405242235 4.026336697697323 0 1 0
11886 978 31 -0.413 4.872843243973513 1.834617058035616 1.8119587038938418 0 1 0
2847 150 12 -0.186 0.3359737180915654 0.323578737886153 3.836161639598911 0 0 0
2848 150 20 0.074 0.1880006839855901 -0.7120334416641285 4.182573043712653 0 0 0
2849 150 20 0.074 -0.6225892839194012 0.853793027204722 3.9116768790657903 0 0 0
2850 150 20 0.074 0.5992278985828134 0.27784098907837373 2.7723374437691493 0 0 0
4657 246 64 -0.382 7.879273822618469 5.952049366591743 7.824537477105806 0 0 0
4659 246 20 0.177 8.163375610080957 6.886013531372761 7.34486519566802 0 0 0
795 42 12 -0.186 13.382417801106646 -1.7786846895948547 23.91963437753706 0 1 0
8878 468 62 0.265 7.546839856668711 5.737288154492129 2.474601101952127 0 0 0
8880 468 20 0.242 7.198026723248999 5.298682727851474 0.426357623070096 0 0 0
11890 978 31 -0.413 4.185747005540619 0.39537112678292896 3.440259803709414 0 1 0
11887 978 56 0.652 5.10916370466389 1.3916624109452047 3.1256495473358568 0 1 0
1707 90 12 -0.186 4.434998118811513 -1.4345450223893141 -1.319370306177339 0 0 0
10450 690 31 -0.413 -1.417705641020612 2.564911118986699 7.26881699601211 0 0 0
8287 437 20 0.177 14.621612892824022 24.678556551323602 -1.7011022865545378 0 0 0
8887 468 20 0.06900000000000001 8.956477441989035 2.7399607914155544 0.019962690876090882 0 0 0
8892 468 20 0.074 8.635077803334092 4.7618221720763945 -1.2596593797195679 0 0 0
2832 150 20 0.177 -1.0125298694747489 -1.5275076910522942 7.655520729556728 0 0 0
925 49 64 0.104 12.678193897776103 1.7808074282253603 -1.1599917553780583 0 0 0
926 49 20 0.06900000000000001 12.212357652686185 2.389952785251933 -0.37936075805944236 0 0 0
927 49 20 0.06900000000000001 13.024297175503277 0.8476572703327836 -0.7011209860059816 0 0 0
5702 301 64 -0.382 7.403749674207157 -1.6036490457369108 12.83900891620985 0 0 0
4660 246 62 0.265 9.0493876599386 5.150230709286703 8.04370689899649 0 0 0
4663 246 62 0.049 10.016871968778753 3.3977512558458534 7.30012330335399 0 0 0
4664 246 63 -0.156 10.904743161611277 4.442713582523079 7.138189196054852 0 0 0
4665 246 20 0.236 11.975988436564725 4.277694796753189 6.998773026654513 0 0 0
4666 246 63 -0.2 10.279438490049413 5.568853470302805 7.602321521777321 0 0 0
4668 246 64 0.104 9.854887707305211 2.2954451244098335 6.352872681099553 0 0 0
4671 246 12 -0.186 8.478605956684335 2.07594539483525 5.69154272102301 0 0 0
4672 246 20 0.074 8.199238618756695 2.9276816512151287 5.071796643075088 0 0 0
4673 246 20 0.074 8.45779807580335 1.1919870881299586 5.060482646812879 0 0 0
4674 246 20 0.074 7.699090820063962 1.9315536384647065 6.437856553729929 0 0 0
8891 468 20 0.074 10.308422237961402 4.3380107971164295 -1.5632949943167629 0 0 0
9224 486 63 -0.156 13.784025569283918 1.0291390438893044 5.208131329277506 0 0 0
9225 486 20 0.236 14.119405139497188 1.6217540251573879 4.354553588347007 0 0 0
9226 486 63 -0.2 14.190227081067064 1.0973542411246116 6.523347156132624 0 0 0
9227 486 20 0.236 14.958766379365802 1.7092552441108522 6.984287524686822 0 0 0
9228 486 64 0.104 11.983167211972319 -0.12464584158046255 3.8441336216951223 0 0 0
9230 486 20 0.06900000000000001 12.774763994769648 0.017227377610867345 3.1056110904229572 0 0 0
9231 486 12 -0.186 10.795144941413225 0.7564461378595575 3.4128148605551853 0 0 0
9232 486 20 0.074 10.942441360154874 1.8020595711759673 3.677639501738492 0 0 0
10953 791 31 -0.413 14.39572919411988 3.60682534467629 1.704651948491353 0 0 0
920 49 62 0.049 13.874024138138608 2.5277829029844145 -1.6024809476642576 0 0 0
8886 468 64 0.104 9.53644731116424 3.606013730488873 0.3424618965194333 0 0 0
8888 468 20 0.06900000000000001 10.50559798570658 3.251501844788635 0.6841266960899032 0 0 0
8889 468 12 -0.186 9.609029030995195 4.639694090109436 -0.788655189033661 0 0 0
8890 468 20 0.074 9.933296134079555 5.617551404855952 -0.4283902429206716 0 0 0
10951 791 31 -0.413 15.590499518542977 5.253115536322967 2.8171129274319635 0 0 0
10952 791 56 0.652 14.329885600381889 4.86531238699779 2.334844784597721 0 0 0
10954 791 31 -0.413 13.883816506471243 5.817094291727576 1.414338470069876 0 0 0
4669 246 20 0.06900000000000001 10.163255016594636 1.4075168720596256 6.886579497500495 0 0 0
4670 246 20 0.06900000000000001 10.596207192801424 2.489976037482452 5.586362673777569 0 0 0
9223 486 62 0.049 12.620278565366 0.2733040850999173 5.162511484088685 0 0 0
9229 486 20 0.06900000000000001 11.741621754553533 -1.1927997827305363 3.840971732935735 0 0 0
9234 486 20 0.074 9.867120316749354 0.384880892408507 3.8364883405425245 0 0 0
6839 360 20 0.074 12.08260540372881 -0.7722377275025485 0.7239800997686928 0 1 0
7099 374 20 0.236 -0.7165123365940891 7.904084788530243 -1.6697675252057274 0 0 1
915 49 20 0.177 14.575166635873053 6.375365758044223 -1.263079728171798 0 0 0
6334 334 20 0.242 0.201778174808235 -1.7788904934387724 13.283632210590412 0 0 0
921 49 63 -0.156 15.079147672330503 2.4539093051326057 -0.9417997965226819 0 0 0
922 49 20 0.236 15.379527121396062 1.6187740269394029 -0.3024675218619504 0 0 0
7651 403 64 0.104 15.031873699356694 6.100398538380112 5.9974646310511215 0 0 0
7653 403 20 0.06900000000000001 15.167514094703709 5.878115497499535 4.947343696095159 0 0 0
8879 468 63 -0.099 7.730826563731895 5.062198163984172 1.338188876385782 0 0 0
8881 468 62 0.049 8.799925742466222 4.220795994484453 1.4877059569187727 0 0 0
8882 468 63 -0.156 9.339132498965647 4.416279434356921 2.7514278357242286 0 0 0
8883 468 20 0.236 10.305936418634651 4.030424477978126 3.0546299545810585 0 0 0
8884 468 63 -0.2 8.562061398168796 5.374936861274645 3.34028340639795 0 0 0
10955 791 31 -0.413 13.419170193937886 4.815587460379717 3.4131079219054836 0 0 0
9220 486 62 0.265 13.221833148968194 0.4194811881748728 7.258300051534728 0 0 0
9221 486 63 -0.099 12.289517319694585 -0.06453007707341785 6.422143906562939 0 0 0
9222 486 20 0.242 11.491281032279014 -0.718889887833891 6.72437190796539 0 0 0
11889 978 31 -0.413 6.392271581585922 0.8478337896553967 3.227770194443136 0 1 0
10046 610 31 -0.413 16.10617628610791 1.0323837544171552 3.1798853378334755 0 1 0
7652 403 20 0.06900000000000001 14.643747695724844 5.177307160350866 6.432099681394675 0 0 0
9233 486 20 0.074 10.684436634464584 0.7331352328867684 2.327916892026259 0 0 0
11738 948 31 -0.413 15.254017495335127 -1.0327027318553053 -0.4408020643382463 0 0 0
10050 610 31 -0.413 18.29686110618299 1.1024914482676968 2.33030842887406 0 1 0
4344 229 20 0.236 20.325680753569443 2.1141507883934407 -1.026338507362245 0 0 1
10049 610 31 -0.413 17.078712948040575 2.997647047284003 2.6649938784118787 0 1 0
5812 306 20 0.074 20.543606396975875 16.76087479502252 -1.7863798169146654 0 0 1
5113 270 64 -0.382 17.46274910486835 22.54944604375832 23.201359882755877 0 0 0
7480 394 64 0.104 17.927738014802063 -1.6557963965646953 4.8576820568458725 0 1 0
1638 87 20 0.177 16.64005175641259 5.916851231666317 24.67860296917498 0 0 0
342 18 20 0.074 24.20725609710354 5.796508644232832 5.1792270720245215 0 0 0
923 49 63 -0.2 15.702613271647273 3.643858190747822 -1.131751784236034 0 0 0
924 49 20 0.236 16.491125452963278 4.074165391621112 -0.5293731032776072 0 0 0
6195 327 20 0.177 20.563590125637823 4.459695511641743 4.465736931722655 0 0 0
6196 327 64 -0.382 19.88651200777334 3.59743646774473 4.499730794764158 0 0 0
6197 327 20 0.177 19.327058194518298 3.5007024593787586 3.5595444691422835 0 0 0
6198 327 20 0.177 19.12705568920948 3.7466934774941176 5.274000309588704 0 0 0
6199 327 62 0.265 20.601801612174654 2.3464198468168114 4.797007821532203 0 0 0
6200 327 63 -0.099 20.965137905981656 1.392026434563956 3.942309942814544 0 0 0
6201 327 20 0.242 20.863240674479858 1.4385036064109018 2.864906118065443 0 0 0
6202 327 62 0.049 21.32005179947268 0.29913034132845295 4.64621523440129 0 0 0
6203 327 63 -0.156 21.047287013599707 0.5212880422199611 5.977136080239361 0 0 0
6205 327 63 -0.2 20.71231763840353 1.8473247858147355 6.08028561949731 0 0 0
6206 327 20 0.236 20.871384791614787 2.494224200637123 6.93937307584697 0 0 0
6207 327 64 0.104 22.192832128619713 -0.7989397724476082 4.143081718765101 0 0 0
6208 327 20 0.06900000000000001 21.93603958982045 -0.9795249859003224 3.1038883176759073 0 0 0
6209 327 20 0.06900000000000001 21.821242758946422 -1.6698977551640986 4.666599743433222 0 0 0
6210 327 12 -0.186 23.711879581978287 -0.6043436495826371 4.367357890153883 0 0 0
6211 327 20 0.074 23.908357077887196 -0.16426197538651488 5.340519582113767 0 0 0
6213 327 20 0.074 24.16527889496817 0.002008315631130131 3.594787595084882 0 0 0
10581 717 31 -0.413 22.267679031600128 2.447879408917064 0.9979136954798574 0 0 0
10582 717 56 0.652 22.99780025216284 1.3390253888693016 0.5221356654093471 0 0 0
10583 717 31 -0.413 22.83644643121827 0.30675364889155254 1.4291549356298896 0 0 0
10584 717 31 -0.413 24.36826818186277 1.662038184749528 0.4423162516288568 0 0 0
10585 717 31 -0.413 22.507535494175446 0.9205648110506859 -0.7317916462179882 0 0 0
11736 948 31 -0.413 17.46547249117624 -0.41893958555953104 -0.48704625381939387 0 0 0
11737 948 56 0.652 16.587623731389286 -1.4904477444348518 -0.6137584030546299 0 0 0
3508 185 20 0.236 21.184414918342974 -1.7285266807262163 1.0090245811897058 0 1 0
6204 327 20 0.236 20.797616516754758 -0.2668760782556274 6.654773628236657 0 0 0
7647 403 63 -0.156 17.5451742522658 6.960267934678662 5.929575684668711 0 0 0
10048 610 31 -0.413 17.813390428318222 1.8762546603613086 4.470515089808267 0 1 0
10047 610 56 0.652 17.325266586945382 1.7448751995633325 3.157197805518384 0 1 0
2563 135 20 0.074 24.647327268699296 11.370999058884546 19.426723010688463 0 0 0
7486 394 20 0.074 19.12099497144007 -1.732022621719679 6.684795485760558 0 1 0
332 18 63 -0.156 24.924106934405142 6.648575658103875 2.225967597821157 0 0 0
7481 394 20 0.06900000000000001 18.11764406909069 -0.577918683353779 4.820146552943954 0 1 0
1425 75 20 0.074 7.986619974241679 -1.2519814817162724 4.5646528257429555 0 1 0
1467 78 20 0.177 23.157059132039723 3.432192073532619 5.739425561134653 0 0 0
1475 78 20 0.236 24.272332288367966 3.7030948518811186 3.436250748352571 0 0 0
7646 403 62 0.049 16.480839946737394 6.257008618519459 6.476008275889694 0 0 0
6212 327 20 0.074 24.225179743291054 -1.5654483885845303 4.373444763874511 0 0 0
9622 525 56 0.652 24.573365904761175 5.542206599074762 -1.7466628629917442 0 0 1
6326 333 20 0.074 23.184949806479956 24.580081007536787 5.105763958179167 0 0 0
9625 525 31 -0.413 23.17510504861146 5.525524823194743 -1.4505659927535564 0 0 1
4343 229 63 -0.2 20.023947475431363 2.861794186420634 -1.7544028307087318 0 0 1
7602 401 64 -0.382 -0.9864751914644816 15.936987696054107 0.8863208925134178 0 0 0
9981 597 31 -0.413 22.36793457951143 22.422750605474697 24.903541066476347 0 0 0
5523 291 64 0.104 -1.3621806221114485 13.018967026835778 6.629994277334024 0 0 0
5520 291 20 0.236 -0.8159594312127154 10.077502832745814 6.944979131483089 0 0 0
954 51 20 0.177 5.270284135872235 11.53252826833064 -1.1938253063502593 0 0 0
955 51 62 0.265 3.19808204890833 11.527977493400536 -0.9529225902825086 0 0 0
956 51 63 -0.099 2.079753976460979 10.918930505555515 -0.593598981330385 0 0 0
7601 401 20 0.177 -1.151064100354859 15.975116199694753 1.969209180142682 0 0 0
958 51 62 0.049 1.1158231962198668 11.833433778438884 -0.5365929681673487 0 0 0
959 51 63 -0.156 1.6633432879794339 13.055832040210337 -0.900259613452577 0 0 0
960 51 20 0.236 1.050854641741958 13.902406407114404 -1.1778347745151585 0 0 0
961 51 63 -0.2 3.000149122109651 12.878090027523738 -1.0557908364592585 0 0 0
962 51 20 0.236 3.786285020331203 13.530679496608451 -0.7220600776561461 0 0 0
963 51 64 0.104 -0.2920189096780963 11.486040332545732 -0.16435707206837644 0 0 0
964 51 20 0.06900000000000001 -0.3331414179391734 10.419720850932256 0.06312903682482314 0 0 0
965 51 20 0.06900000000000001 -0.8535319433758665 11.626640255616019 -1.0903125107611056 0 0 0
966 51 12 -0.186 -0.952779453375586 12.2951986950533 0.9566839060834602 0 0 0
967 51 20 0.074 -1.4617484950387123 13.165392862901616 0.571008760188658 0 0 0
968 51 20 0.074 -1.7007114101355938 11.681282812385408 1.4604003237133456 0 0 0
969 51 20 0.074 -0.2204857256226036 12.626307991866017 1.690165361265258 0 0 0
4732 250 20 0.177 0.8570211607685985 14.857372620751164 7.470096679881639 0 0 0
4733 250 64 -0.382 1.9173017360439193 15.071538474092872 7.587104658334483 0 0 0
4736 250 62 0.265 2.788215904142908 13.982110073670782 7.093426994046367 0 0 0
4737 250 63 -0.099 2.4581606992471414 12.686036672669244 7.221043738282659 0 0 0
4739 250 62 0.049 3.152512315088045 11.960637230703826 6.321914615376832 0 0 0
4740 250 63 -0.156 4.021987192368614 12.814488065325806 5.670745066717507 0 0 0
4742 250 63 -0.2 3.778867450502011 14.075751821494453 6.12945366873026 0 0 0
4744 250 64 0.104 2.8915032076033826 10.52351924786288 5.897368499133777 0 0 0
4747 250 12 -0.186 1.4346042260597653 10.217110093643596 5.606326689579125 0 0 0
4748 250 20 0.074 0.9537669800859696 11.018778338154606 5.065392256695179 0 0 0
4750 250 20 0.074 1.0019978399950924 9.98333026459107 6.558406273768656 0 0 0
5526 291 12 -0.186 -1.1274403951955851 12.393536513650307 5.290505870178749 0 0 0
5529 291 20 0.074 -0.11275010332797852 12.633941916161556 4.971040051831801 0 0 0
6838 360 20 0.074 13.68543220324675 -1.4460480300116387 1.0016091890678336 0 1 0
7619 401 20 0.074 4.052756686141449 15.857537982387537 1.7563528616783384 0 0 0
8874 468 20 0.177 5.513056001971606 6.234823717082902 2.330147852972433 0 0 0
8875 468 64 -0.382 6.427538959034742 6.676544271841456 2.7362968716599836 0 0 0
8876 468 20 0.177 6.252642172840174 6.822818612396938 3.804915194005061 0 0 0
8877 468 20 0.177 6.59540785781493 7.641157428020103 2.2376392587325653 0 0 0
11509 902 31 -0.413 3.675263360078895 12.104214726856956 3.0664971465205086 0 0 0
4741 250 20 0.236 4.816647434495238 12.44972544259002 5.0325743053050465 0 0 0
4749 250 20 0.074 1.3302264970768056 9.32224472354699 4.994956736464439 0 0 0
11609 922 31 -0.413 15.759085831865129 24.694841228873244 1.6747416239744894 0 0 0
5875 310 20 0.177 -1.3157520943312393 6.490475564356547 1.8233067464633206 0 0 0
10025 605 31 -0.413 5.5476466230767505 8.66034361264445 5.698004336383508 0 0 0
11506 902 31 -0.413 4.932453193829077 11.693544150716852 1.25465793211368 0 0 0
11507 902 56 0.652 4.957960790553616 11.773284890374939 2.61374109623226 0 0 0
11508 902 31 -0.413 5.358682617188294 10.540435348595725 3.1635229732771255 0 0 0
11510 902 31 -0.413 5.864502717908501 12.778720915291842 2.96519863763545 0 0 0
7604 401 20 0.177 -0.9598788143152336 14.934965797641944 0.5175889380111185 0 0 0
4743 250 20 0.236 4.080357501180399 15.032562055369453 5.7178853148514595 0 0 0
5528 291 20 0.074 -1.797078284395107 12.863194824539478 4.575074747834964 0 0 0
5527 291 20 0.074 -1.318993452162373 11.317764814222572 5.223227923066725 0 0 0
4746 250 20 0.06900000000000001 3.5284448529551558 10.299964565554472 5.041401553068777 0 0 0
4745 250 20 0.06900000000000001 3.216193265790455 9.89415124484614 6.717292392095871 0 0 0
10024 605 31 -0.413 5.5502216694798605 10.508952951190908 7.0418309180619 0 0 0
10849 770 31 -0.413 -1.359168340879578 15.38075254885253 4.6389937800051255 1 0 0
10338 668 31 -0.413 -1.072756084140046 8.366436724160199 5.13878211803429 1 0 0
330 18 20 0.242 24.850782159293882 9.808202026996888 2.8416693861877547 0 0 0
951 51 20 0.177 4.581877119808302 10.018294178408498 -0.603270764280354 0 0 0
1749 93 20 0.177 13.306691807538098 9.277742831488466 0.2656095874038651 0 0 0
1752 93 20 0.177 14.154964919641095 8.027081440092008 1.1981759311421625 0 0 0
4667 246 20 0.236 10.760238819320724 6.379415431457801 8.136169302253297 0 0 0
7655 403 20 0.074 14.248080960827053 8.098508273211646 5.510142376944936 0 0 0
1750 93 64 -0.382 13.635142805773686 8.98052959530169 1.2585895817530368 0 0 0
1751 93 20 0.177 14.34156924970086 9.715860554455368 1.6306970345798373 0 0 0
1753 93 62 0.265 12.492968529246609 8.85874883067178 2.16022789895021 0 0 0
1754 93 63 -0.099 11.358989833636892 9.572026597378064 2.178566818178198 0 0 0
1755 93 20 0.242 11.078537897978865 10.298549211730435 1.4320185297130497 0 0 0
1756 93 62 0.049 10.66416144859871 9.224701690757067 3.278754154282264 0 0 0
1757 93 63 -0.156 11.437280278745249 8.336445185466847 4.012894465409621 0 0 0
1759 93 63 -0.2 12.52654751376605 8.043058140830892 3.25490641560708 0 0 0
1761 93 64 0.104 9.225493780228614 9.539029615271494 3.578368820209832 0 0 0
1762 93 20 0.06900000000000001 8.65669048974061 8.616883407073711 3.4563552790586436 0 0 0
1763 93 20 0.06900000000000001 8.861547496409422 10.25447137614696 2.839973634085427 0 0 0
1764 93 12 -0.186 9.160585471639623 10.069576521109747 5.021611582782647 0 0 0
1765 93 20 0.074 9.757862422721479 10.978504720444684 5.1305386821231265 0 0 0
1766 93 20 0.074 8.132785330122628 10.302434453905288 5.306746787284149 0 0 0
1767 93 20 0.074 9.538161633280993 9.333362885032095 5.732585343132138 0 0 0
7971 420 20 0.236 9.811411220174877 16.727533597832235 -0.5516981112068388 0 0 0
8885 468 20 0.236 8.714942326613933 5.9084944557369345 4.264162071407555 0 0 0
10097 620 56 0.652 8.42629625282124 8.736141051673897 -0.9049934422877913 0 0 0
10098 620 31 -0.413 8.235316083422072 10.069292649758147 -1.316990583333286 0 0 0
10099 620 31 -0.413 9.452830377388247 8.676394384224603 0.04835596971575049 0 0 0
10100 620 31 -0.413 7.239805531905597 8.231936258270729 -0.3097920582497071 0 0 0
10201 641 31 -0.413 12.397282082592387 12.659666512262245 4.060663227099572 0 0 0
11031 807 31 -0.413 15.82106277358476 10.528831236036957 -1.5896865779459515 0 0 1
11532 907 56 0.652 10.587882652240443 16.105055919658763 5.801924546616583 0 0 0
11533 907 31 -0.413 10.073708510345572 14.881319367076138 5.32079424342857 0 0 0
1758 93 20 0.236 11.3075736852953 8.212826489181847 5.078377341164266 0 0 0
1760 93 20 0.236 13.236903714289781 7.231034003379401 3.3190246615555448 0 0 0
4781 252 20 0.236 14.15165932463803 13.833831211966968 2.926981558303256 0 0 0
10202 641 56 0.652 13.470224287583275 11.796008258489774 4.346067659888895 0 0 0
10203 641 31 -0.413 13.00925004553898 10.661264935709267 5.0388203515946905 0 0 0
7962 420 20 0.177 7.072976089418329 14.882320276866896 3.366132420865599 0 0 0