LAMMPS data file via write_data, version 2 Aug 2023, timestep = 2000000, units = real

12000 atoms
69 atom types
11500 bonds
258 bond types
19500 angles
165 angle types
20500 dihedrals
47 dihedral types
2500 impropers
5 improper types

-0.7958772584278364 50.79587725842707 xlo xhi
-0.7958772584278364 50.79587725842707 ylo yhi
-0.7958772584278364 50.79587725842707 zlo zhi

Masses

1 15.9994
2 15.9994
3 15.9994
4 15.9994
5 15.9994
6 14.0067
7 14.0067
8 14.0067
9 14.0067
10 14.0067
11 14.0067
12 12.011
13 12.011
14 13.019
15 14.027
16 15.035
17 16.043
18 14.027
19 12.011
20 1.008
21 1.008
22 1
23 32.06
24 63.546
25 63.546
26 55.847
27 65.37
28 24.305
29 40.08
30 39.948
31 18.9984
32 35.453
33 79.904
34 12.011
35 15.9994
36 22.9898
37 35.453
38 12.011
39 35.453
40 1.008
41 32.06
42 12.011
43 15.9994
44 12.011
45 35.453
46 18.9984
47 12.011
48 13.019
49 15.9994
50 12.011
51 15.9994
52 14.0067
53 15.035
54 126.90447
55 35.453
56 10.811
57 78.95999999999999
58 1.008
59 35.453
60 79.904
61 15.9994
62 14.0067
63 12.011
64 12.011
65 14.0067
66 14.0067
67 15.9994
68 28.08
69 30.9738

Pair Coeffs # lj/cut/coul/long

1 0.305714 2.76007
2 0.412295 2.62585
3 0.203061 2.95484
4 0.252656 2.84916
5 0.155394 3.16565
6 0.152915 3.13647
7 0.0700622 3.5722
8 0.152915 3.13647
9 0.104651 3.34113
10 0.152915 3.13647
11 0.152915 3.13647
12 0.0663015 3.58118
13 0.00167194 6.63949
14 0.0226791 5.01918
15 0.098122 4.07038
16 0.207254 3.74792
17 0.302012 3.70995
18 0.11455 3.95474
19 0.120138 3.74119
20 0.0282937 2.37341
21 0 0
22 0 0
23 0.455513 3.30769
24 2.039 1.5184
25 2.039 1.5184
26 0 0
27 1.107 1.68112
28 0.0747249 1.93323
29 0.121156 2.81311
30 0.238148 3.40984
31 0.10897 2.94006
32 0.300087 3.46982
33 0.69792 3.6508
34 0.243126 3.60124
35 0.131455 3.17694
36 0.00509651 3.12117
37 0.162149 4.09571
38 0.101741 3.40006
39 0.299511 3.44
40 0.0197496 2.20219
41 0.310038 3.55995
42 0.207254 3.74792
43 0.409923 2.63004
44 0.0544087 3.7739
45 0.270582 3.44757
46 0.0828967 3.07717
47 0.0970049 3.3611
48 0.117014 3.91992
49 0.203061 2.95484
50 0.105027 3.74991
51 0.210013 2.95998
52 0.169966 3.25006
53 0.207254 3.74792
54 0.836845 3.84961
55 0.329921 3.26983
56 0.0663015 3.58118
57 0.455513 3.30769
58 0 0
59 0.329921 3.26983
60 0.580843 3.89995
61 0.119432 3.40025
62 0.1399 3.9019
63 0.0734574 3.52053
64 0.245018 2.81144
65 0.142655 4.06776
66 0.219779 3.64529
67 0.119497 3.1
68 0.584786 3.38557
69 0.584786 3.38557

Bond Coeffs # harmonic

1 375.239 1
2 446.941 1
3 349.274 1.09
4 1109.29 1.12
5 600.242 1.23
6 500.418 1.25
7 499.732 1.32
8 375.003 1.33
9 448.144 1.33
10 498.877 1.33
11 450.617 1.34
12 502.116 1.34
13 450.906 1.36
14 500.679 1.38
15 399.904 1.39
16 498.726 1.39
17 400.057 1.4
18 399.792 1.43
19 450.132 1.43
20 300.222 1.435
21 449.843 1.47
22 299.976 1.48
23 399.968 1.48
24 450.226 1.48
25 450.108 1.5
26 299.844 1.52
27 400.034 1.53
28 299.851 1.61
29 299.727 1.63
30 205.976 1.78
31 449.816 1.78
32 449.828 1.83
33 300.045 1.87
34 59.9679 1.98
35 60.0382 2
36 500.307 2.04
37 63.0357 2.21
38 554.493 1
39 349.928 1.1
40 599.794 1.758
41 449.829 1.53
42 444.341 1.93799
43 599.679 1.76
44 501.026 1.265
45 448.656 1.35
46 555.129 1.63299
47 350.249 2.33839
48 600.161 2.90283
49 445.884 2.79388
50 443.815 2.91189
51 409.328 2.077
52 600.173 2.87407
53 88.4321 1.1
54 56.1663 1.84
55 513.862 1.01
56 310.707 1.41
57 442.161 1.02
58 239.006 1.46
59 513.862 1.29
60 442.161 0.972
61 812.62 1.22
62 466.061 1.22
63 239.006 1.54
64 179.254 1.56
65 227.055 1.54
66 106.358 1.76
67 131.453 1.69
68 203.155 1.75
69 203.155 1.51
70 143.403 1.57
71 179.254 0.971
72 191.205 1.5
73 262.906 1.45
74 549.713 1.52
75 83.652 1.03
76 191.205 1.74
77 191.205 1.72
78 227.055 1.64
79 203.155 1.67
80 191.205 1.66
81 215.105 1.65
82 513.862 1.31
83 155.354 1.01
84 35.8509 1.89
85 101.577 1.93
86 155.354 1.36
87 167.304 1.79
88 114.723 1.35
89 155.354 1.39
90 203.155 1.38
91 227.055 0.983
92 155.354 1.3
93 418.26 1.08
94 155.354 1.9
95 1314.53 1.16
96 143.403 1.8
97 155.354 1.42
98 478.011 0.984
99 119.503 1.08
100 119.503 1.91
101 418.26 1.03
102 525.813 1.28
103 131.453 1.22
104 143.403 1.11
105 1195.03 1.21
106 466.061 1.07
107 956.023 1.21
108 693.117 1.21
109 87.2371 1.85
110 394.359 1.11
111 109.943 2.09
112 131.453 1.82
113 99.1874 1.96
114 56.1663 1.86
115 167.304 1.21
116 167.304 1.28
117 143.403 1.71
118 131.453 1.6
119 454.111 1.21
120 41.826 1.61
121 131.453 1.94
122 155.354 1.59
123 143.403 2.1
124 119.503 2.12
125 57.3614 2.13
126 203.155 1.26
127 1195.03 1.14
128 191.205 1.23
129 788.719 1.3
130 239.006 1.31
131 59.7514 2.04
132 82.457 1.34
133 621.415 0.938
134 310.707 1.16
135 34.6558 2.07
136 60.9465 1.16
137 93.2122 2.16
138 43.021 2.23
139 23.9006 2.05
140 896.272 1.19
141 728.967 1.47
142 394.359 1.57
143 1195.03 1.18
144 54.9713 1.87
145 1063.58 1.17
146 215.105 1.13
147 59.7514 2.02
148 179.254 1.07
149 250.956 1.14
150 155.354 1.06
151 537.763 1.46
152 812.62 1.17
153 92.0172 2.15
154 239.006 1.04
155 60.9465 1.4
156 1314.53 1.11
157 466.061 1.56
158 752.868 1.49
159 501.912 1.54
160 35.8509 2.17
161 35.8509 2.27
162 669.216 1.45
163 764.818 1.25
164 848.47 1.27
165 561.663 1.16
166 1434.03 1.14
167 501.912 1.17
168 537.763 1.19
169 920.172 1.14
170 227.055 1.24
171 1434.03 1.13
172 89.6272 2.91
173 57.3614 2.24
174 418.26 0.743
175 239.006 1.2
176 111.138 2.33
177 96.7973 2.42
178 83.652 1.32
179 1159.18 1.2
180 1314.53 1.2
181 430.21 1.58
182 53.7763 1.47
183 1.55354 2.77
184 5.13862 2.25
185 100.382 2.18
186 50.1912 1.52
187 93.2122 2.19
188 27.4857 1.48
189 1912.05 1.07
190 8.60421 2.8
191 87.2371 2.52
192 0.669216 2.79
193 812.62 1.16
194 1.79254 2.68
195 406.31 1.59
196 119.503 1.18
197 34.6558 2.54
198 1792.54 1.1
199 824.57 1.29
200 33.4608 2.44
201 107.553 2.41
202 112.333 2.36
203 20.3155 1.43
204 2.27055 2.57
205 19.1205 2.47
206 0.764818 2.71
207 1553.54 1.12
208 3.70459 2.75
209 501.912 1.14
210 0.717017 2.86
211 10.5163 2.64
212 1912.05 0.985
213 1.91205 2.61
214 7.40918 2.62
215 59.7514 2.46
216 3.58509 2.66
217 1.31453 2.72
218 58.5564 1.63
219 573.614 1.12
220 37.0459 2.32
221 16.7304 1.44
222 1553.54 1.16
223 7.17017 2.69
224 10.0382 2.49
225 3.22658 2.92
226 0.82457 2.29
227 9.79924 2.4
228 1.03967 2.37
229 1.55354 2.94
230 5.85564 2.95
231 1.67304 2.96
232 0.0131453 2.56
233 5.25813 2.59
234 15.5354 2.38
235 836.52 1.12
236 1.91205 2.5
237 2.39006 2.3
238 585.564 1.04
239 3.34608 2.99
240 0.967973 2.34
241 1.07553 2.98
242 2.27055 2.74
243 1063.58 1.16
244 812.62 1.5
245 1.31453 2.84
246 0.322658 2.82
247 908.222 1.23
248 466.061 1.05
249 3.34608 2.88
250 1434.03 1.18
251 1673.04 1.15
252 6.33365 2.9
253 1027.72 1.24
254 418.26 1.9
255 2270.55 1.08
256 1434.03 1.21
257 764.818 0.975
258 0 0

Angle Coeffs # harmonic

1 45.3116 90
2 50.0917 90
3 47.7712 96
4 54.9551 100
5 47.5559 103
6 55.0345 104
7 50.1709 108
8 30.1731 109.5
9 33.8897 109.5
10 40.2609 109.5
11 45.0394 109.5
12 47.694 109.5
13 55.1272 109.5
14 47.635 109.6
15 55.1139 111
16 55.0997 113
17 4.824 115
18 45.0699 115
19 59.7937 115
20 44.8085 116
21 59.7719 116
22 60.1639 117
23 34.88 120
24 39.8095 120
25 45.1871 120
26 47.4278 120
27 50.1166 120
28 59.9756 120
29 69.8346 120
30 60.0726 121
31 60.091 122
32 34.8146 123
33 59.8929 124
34 30.0075 125
35 60.0779 125
36 44.9139 126
37 49.998 126
38 60.166 126
39 50.1189 132
40 47.5187 155
41 28.4971 180
42 45.9951 109.5
43 52.4767 107.57
44 65.472 111.3
45 55.0189 97.4
46 55.0247 106.75
47 47.5019 108.53
48 65.5335 109.5
49 54.9566 107.6
50 47.4817 109.5
51 54.9931 110.3
52 55.0234 111.4
53 60.044 117.2
54 60.0023 121.4
55 48.24 180
56 180.46 109
57 192.229 106
58 145.153 126
59 145.153 96.2
60 156.922 114
61 203.998 119
62 239.306 130
63 298.152 107
64 156.922 134
65 239.306 101
66 286.382 113
67 368.766 134
68 356.997 119
69 333.459 126
70 251.075 89.6
71 380.536 114
72 286.382 135
73 145.153 88.3
74 133.384 60
75 380.536 179
76 251.075 180
77 470.766 178
78 47.0766 59.9
79 47.0766 60.3
80 251.075 124
81 706.149 118
82 117.691 144
83 627.688 123
84 470.766 118
85 333.459 94.8
86 90.2301 175
87 156.922 82.8
88 117.691 77.6
89 239.306 145
90 251.075 50.8
91 380.536 104
92 262.844 84.4
93 215.768 63.3
94 215.768 61
95 298.152 173
96 192.229 173
97 82.384 50.9
98 431.535 127
99 62.7688 67.8
100 156.922 180
101 588.457 118
102 30.1731 110
103 227.537 94.8
104 431.535 173
105 34.5228 78.5
106 70.6149 138
107 70.6149 168
108 156.922 167
109 18.046 149
110 333.459 144
111 356.997 148
112 321.69 144
113 356.997 148
114 321.69 147
115 333.459 144
116 5099.96 60.8
117 1451.53 68
118 298.152 161
119 156.922 155
120 309.921 154
121 215.768 75.3
122 309.921 64.7
123 549.227 173
124 3334.59 45.8
125 863.071 123
126 549.227 123
127 470.766 166
128 380.536 166
129 203.998 139
130 66.6918 161
131 7.45379 44.9
132 25.1075 84.8
133 192.229 161
134 333.459 70.4
135 627.688 173
136 1.92229 51.6
137 21.5768 73.3
138 7.45379 174
139 470.766 132
140 145.153 69.9
141 15.6922 144
142 1922.29 97.9
143 392.305 155
144 588.457 104
145 117.691 149
146 509.996 157
147 286.382 166
148 333.459 89.8
149 392.305 79.1
150 6669.18 45.2
151 470.766 101
152 745.379 125
153 168.691 49.6
154 509.996 112
155 470.766 107
156 298.152 59.6
157 239.306 70.2
158 3923.05 100
159 3923.05 100
160 1059.22 46.3
161 1176.91 46.3
162 431.535 94.1
163 509.996 69.6
164 470.766 139
165 666.918 132

Dihedral Coeffs # harmonic

1 0.638145 -1 1
2 0.81501 -1 1
3 1.18786 -1 1
4 1.40057 -1 1
5 2.2347 -1 1
6 2.2586 -1 1
7 0.666826 1 1
8 1.27868 1 1
9 0.365679 -1 2
10 1.40057 -1 2
11 1.69933 -1 2
12 3.9914 -1 2
13 5.73614 -1 2
14 8.00669 -1 2
15 9.99044 -1 2
16 0 1 2
17 0.0999044 1 2
18 0.499522 1 2
19 0.750478 1 2
20 1.21654 1 2
21 3.9914 1 2
22 0.250956 1 3
23 0.301147 1 3
24 0.310707 1 3
25 0.604685 1 3
26 0.700287 1 3
27 0.762428 1 3
28 0.872371 1 3
29 0.901052 1 3
30 0.932122 1 3
31 0.999044 1 3
32 1.12094 1 3
33 1.30019 1 3
34 1.41491 1 3
35 1.83795 1 3
36 2.06023 1 3
37 2.27055 1 3
38 0 1 4
39 0.239006 -1 6
40 0.239006 1 6
41 0.901052 1 6
42 0.83652 -1 2
43 0.669216 1 3
44 0.167304 -1 6
45 0.0956023 1 6
46 0.239006 -1 3
47 0 1 1

Improper Coeffs # harmonic

1 20.0075 0
2 40.0151 35.2644
3 80.0302 0
4 20.0075 180
5 40.0151 -35.2644

Atoms # full

1754 93 63 -0.099 1.173556563346699 3.120992497311609 1.6415241888421135 0 0 0
1753 93 62 0.265 2.531021235284645 3.2419929244682892 1.8489170605904532 0 0 0
1756 93 62 0.049 0.5533240619427728 3.174333982879553 2.780855516889104 0 0 0
1750 93 64 -0.382 3.5519587529340795 3.4716608250151113 0.7800471930956121 0 0 0
1749 93 20 0.177 3.354483872990718 2.921634195097165 -0.15858429082043346 0 0 0
1755 93 20 0.242 0.7223386358252111 3.0487217905094335 0.6913755649403857 0 0 0
10807 762 56 0.652 5.229404960818911 6.374730849535895 2.5865280163005155 0 0 1
10809 762 31 -0.413 5.9498919286414305 7.111162880683786 1.645335279505166 0 0 1
1757 93 63 -0.156 1.4604729338749758 3.244664715454072 3.7839201461327594 0 0 0
1752 93 20 0.177 4.524349737621398 3.247021726282769 1.2078298864701993 0 0 0
1759 93 63 -0.2 2.686910788552815 3.396545691491541 3.189697483509262 0 0 0
1751 93 20 0.177 3.599494707965026 4.5585209404491795 0.48211083041395075 0 0 0
1760 93 20 0.236 3.5415123789758995 3.8016947716945007 3.545366677356766 0 0 0
7237 381 20 0.074 3.998560236909828 5.602424359743208 6.533964983294545 0 0 0
7236 381 12 -0.186 3.8594559243764577 6.395459875693333 7.279609225085679 0 0 0
7239 381 20 0.074 4.856998625253052 6.757785373560992 7.489320834521768 0 0 0
7238 381 20 0.074 3.4896028121604266 7.321527836031878 6.787965163178338 0 0 0
10810 762 31 -0.413 6.010954002291168 5.2477778789627 2.9782326008039823 0 0 1
11892 979 56 0.652 4.572000974823667 1.6657127468355863 6.914532311965892 0 0 0
11894 979 31 -0.413 5.478200887111729 2.031640033655414 5.811572075794045 0 0 0
11895 979 31 -0.413 3.272612963548039 1.7729399146952232 6.464811590666097 0 0 0
11676 936 31 -0.413 5.688418315701279 1.9544572177127768 -0.602659972067987 0 0 0
1758 93 20 0.236 1.1871481309296623 3.530752100879157 4.829792986491119 0 0 0
11893 979 31 -0.413 4.924189326595016 0.3964970173392186 7.42159792684221 0 0 0
11891 979 31 -0.413 4.689446992996831 2.7315667883902144 7.9121855473570495 0 0 0
9743 549 31 -0.413 0.6650844159067664 6.173559053222759 -0.3319773291519837 0 0 1
4750 250 20 0.074 6.68957744264984 6.418823198942658 7.136117239582815 0 0 0
3546 187 20 0.236 8.053676264140774 3.9381651440246204 1.5715412222274754 0 0 0
5069 267 20 0.06900000000000001 2.1325319549971193 7.332862901170971 1.7935416625659193 1 0 0
9365 493 20 0.074 24.160704464516872 16.32620025937477 24.36515188303451 0 0 0
4746 250 20 0.06900000000000001 6.533158873396319 4.043432744367686 7.2062092662189094 0 0 0
4828 255 64 -0.382 6.958696538195459 1.2708419786451652 2.087912801534224 0 1 1
4744 250 64 0.104 7.109841950748605 4.582452230891476 7.9840342425187405 0 0 0
4827 255 20 0.177 7.156138998282186 1.8177034195683093 1.0999823420887014 0 1 1
4837 255 63 -0.2 4.64063946544643 0.3510022841454803 2.673458725417254 0 1 1
4838 255 20 0.236 4.4965604569425555 1.0780092182683592 3.4646330423988534 0 1 1
4830 255 20 0.177 7.871664622714119 0.8791838147775755 2.3606200270433 0 1 1
4829 255 20 0.177 6.816343920619675 1.9179186804083015 2.9217042793283476 0 1 1
10806 762 31 -0.413 4.055680916609872 5.821806057362219 2.101400784767806 0 0 1
5068 267 20 0.06900000000000001 2.5250705458414724 8.267909437049985 3.2898304655616126 1 0 0
4831 255 62 0.265 5.836668933632632 0.26313385202630246 2.029048499534492 0 1 1
3629 191 20 0.074 9.127358497208283 0.07589864850755335 23.39435394060276 0 0 0
3537 187 20 0.177 11.559245101993799 5.282128905139627 2.4389057361958377 0 0 0
3545 187 63 -0.2 8.821223840968434 4.084433609970984 0.7804053436710319 0 0 0
4749 250 20 0.074 8.285207592330842 5.921118831256461 6.742391448596942 0 0 0
4747 250 12 -0.186 7.593036002929086 5.917532306947525 7.502523816278856 0 0 0
3535 187 20 0.177 9.926349555342682 5.056065441767399 2.9755006064571536 0 0 0
928 49 12 -0.186 12.292106487541595 0.35763013300955704 3.547920243198126 0 0 0
924 49 20 0.236 7.513203041227605 1.4144128459426901 5.60271260084292 0 0 0
4748 250 20 0.074 8.045244568648398 6.540795803941591 8.248869409621708 0 0 0
3538 187 20 0.177 10.431640839788617 6.459295729062264 1.795172815078876 0 0 0
3536 187 64 -0.382 10.533369978933937 5.427565894149801 2.1097232527468575 0 0 0
3539 187 62 0.265 10.080558823353739 4.555593187554058 0.9955850391904209 0 0 0
3540 187 63 -0.099 10.914631591564682 4.043611468163563 0.0622331112778679 0 0 0
10038 608 31 -0.413 12.7825011833382 3.3757190372870216 4.264234805021021 0 1 0
10037 608 56 0.652 12.040192635981743 4.0724077166052135 5.181708353828266 0 1 0
10039 608 31 -0.413 12.736771252231682 5.233011439104691 5.390564858257075 0 1 0
10036 608 31 -0.413 11.946973223355595 3.3666869908111448 6.402637765836942 0 1 0
10040 608 31 -0.413 10.701449314036937 4.268036346694613 4.8660363862131595 0 1 0
6434 339 20 0.236 15.070355405131666 4.461469372986791 4.588610938787777 1 1 0
6055 319 64 0.104 14.814620568377723 6.240922756917498 0.0732880707481568 0 0 0
6058 319 12 -0.186 14.005188345472721 5.9079041416020805 1.322821428070514 0 0 0
6059 319 20 0.074 14.647672149734644 5.946515245473154 2.1876734421995936 0 0 0
6050 319 62 0.049 15.662853883360778 7.432349244885909 0.2551005905225059 0 0 0
6060 319 20 0.074 13.248729780533147 6.591315471839667 1.4417813914604918 0 0 0
11044 809 31 -0.413 14.246948005441306 1.3582550442085868 0.24134609780636707 0 0 1
923 49 63 -0.2 8.402925920084511 0.768805009384383 5.440191890584877 0 0 0
921 49 63 -0.156 9.693965818457611 1.1086226310165124 5.436714783693494 0 0 0
922 49 20 0.236 10.22244037026981 2.0783347610535214 5.313227769926291 0 0 0
6061 319 20 0.074 13.685328856598359 4.856158250127457 1.2975838820716752 0 0 0
9384 494 20 0.074 14.878168434609714 6.589461141858185 5.4244226022944 0 0 0
970 52 20 0.177 14.797709660089083 1.8529992667621111 5.741482008280832 0 1 0
7741 408 62 0.049 24.901895203815062 0.020062620130815834 14.301932931068269 0 0 0
930 49 20 0.074 11.722176529952357 1.2391918343448682 3.1312045441599388 0 0 0
6425 339 20 0.177 15.710797052637673 3.866550690256325 1.2993791642752446 1 1 0
10786 758 31 -0.413 11.785329942694428 7.881299660891502 -0.26298072823946983 0 0 1
4872 257 62 0.049 12.078651966539322 24.681030632281256 17.554081993515155 0 0 0
920 49 62 0.049 10.473932909224965 -0.037979378018656584 5.319440530592893 0 0 0
931 49 20 0.074 13.334515697920779 0.5660726714528428 3.437592988388232 0 0 0
927 49 20 0.06900000000000001 12.3494766413084 0.9725141349349371 5.614068446201249 0 0 0
925 49 64 0.104 11.983067948600144 0.060148379004633656 5.0350565261621965 0 0 0
6433 339 63 -0.2 16.13448570219455 4.183240491242624 4.420320654327614 1 1 0
2696 142 20 0.074 13.230474511924086 9.291591726809681 2.1338270488713285 0 1 0
6423 339 20 0.177 14.831366502377644 2.971206998501384 2.619395082307385 1 1 0
6424 339 64 -0.382 15.790407347297467 3.085052376304009 2.143797786686089 1 1 0
6056 319 20 0.06900000000000001 15.598750043035558 5.529184147314638 -0.11411299749144732 0 0 0
6051 319 63 -0.156 17.05186336345417 7.4771504532096085 0.35557696250436077 0 0 0
8906 469 20 0.06900000000000001 5.885418008980856 24.15935274518994 -0.5186570798562118 0 0 1
9382 494 20 0.06900000000000001 12.54356929553011 7.188183065012208 6.623105864585411 0 0 0
8896 469 20 0.177 2.8981837082187627 24.358496134557114 4.169223228742591 0 0 1
3543 187 63 -0.156 8.879061881346892 3.3538315237893643 -0.3878554243104659 0 0 0
2189 116 20 0.177 22.987227648282698 24.208216227872573 20.039015838874473 0 0 0
3215 170 20 0.177 23.531348921267526 10.621440325191996 7.879414814353531 0 0 0
8190 432 20 0.177 18.34573099383858 0.3545263137855339 0.07016390694815378 0 1 1
971 52 64 -0.382 15.303983836399428 0.8172387969230475 5.71572664329626 0 1 0
8702 458 20 0.074 0.10037477744621537 22.154805799864096 19.345817271758445 1 0 0
6426 339 20 0.177 16.256905718874116 2.2430657209190503 1.807653489053488 1 1 0
972 52 20 0.177 16.130693798577028 0.9435211056820962 5.061513254341967 0 1 0
5798 306 20 0.177 21.223050209161656 -0.6285351024517122 1.5406334624408946 0 0 1
6427 339 62 0.265 16.608319414868724 3.4841391163776816 3.3552508741049083 1 1 0
6431 339 63 -0.156 17.216395493497807 4.6224741648833305 5.063920093208781 1 1 0
6432 339 20 0.236 17.22547335460869 5.144578681695166 6.008167833529859 1 1 0
6428 339 63 -0.099 17.987358842496906 3.519282081034449 3.3639689510158934 1 1 0
6429 339 20 0.242 18.618006407531112 3.1184365500931808 2.6015869294560208 1 1 0
6430 339 62 0.049 18.391114261499222 4.224440615023457 4.415961976252498 1 1 0
6437 339 20 0.06900000000000001 19.474475362995996 4.449006184650816 6.056920449395118 1 1 0
6435 339 64 0.104 19.63784761769887 3.830409416612677 5.1322899952096 1 1 0
6436 339 20 0.06900000000000001 19.56417006285173 2.7160977086441056 5.2974851740103 1 1 0
6441 339 20 0.074 21.14053327279222 5.475420193933847 4.885058024005503 1 1 0
6438 339 12 -0.186 20.976116111677054 4.399708219277108 4.606186457344968 1 1 0
8191 432 64 -0.382 17.819652979276732 -0.5841706331807585 -0.328582140664376 0 1 1
5806 306 63 -0.2 22.554349348934615 1.3445997506672938 2.9473186227418933 0 0 1
5802 306 20 0.242 22.258937466750435 2.7979448695467624 0.040133853374859196 0 0 1
5800 306 62 0.265 22.00219776132261 1.3680117098241942 1.6111533379372043 0 0 1
5801 306 63 -0.099 22.432439089326806 2.4788266186774144 1.0167051610134195 0 0 1
5803 306 62 0.049 23.18418965734858 3.190217821288721 1.8755014207618164 0 0 1
11202 841 56 0.652 19.20515058331351 4.289187614263643 -0.0944134590474599 0 1 1
5797 306 64 -0.382 21.211368869946906 0.3220186855358662 0.9279630271999482 0 0 1
5804 306 63 -0.156 23.265802177002204 2.425496909953508 3.064093273619344 0 0 1
6440 339 20 0.074 21.004064720893403 4.412820594230252 3.5202563078449947 1 1 0
6439 339 20 0.074 21.85495434950538 3.8646184234834573 4.933081300077513 1 1 0
11204 841 31 -0.413 19.60636182905503 5.002115111743454 1.0232350312314922 0 1 1
5807 306 20 0.236 22.214627933677622 0.566809856670812 3.793278258118109 0 0 1
5799 306 20 0.177 20.21840704192832 0.7041040139589652 0.8086686373639553 0 0 1
3229 170 20 0.074 23.72005653501595 4.657836043211078 6.502333622474446 0 0 0
5810 306 20 0.06900000000000001 23.894705908568213 4.69852703160198 0.6937282591729095 0 0 1
11201 841 31 -0.413 17.93120340687369 4.7385453782745675 -0.5186114050862372 0 1 1
11203 841 31 -0.413 19.079337660255398 2.9562410736855838 0.19939981041870314 0 1 1
11850 970 31 -0.413 23.771131678854616 6.277585163730545 5.06646532542401 0 0 0
11624 925 31 -0.413 19.874762054729914 0.11152921701257834 4.036418346106351 0 1 1
8551 451 20 0.177 21.38012229332866 7.453345149057194 4.19556867346625 0 1 1
8909 469 20 0.074 6.15443833374806 21.751961863834513 -0.4169858910011736 0 0 1
5808 306 64 0.104 24.223469434538735 4.2235490187660965 1.6117781121465002 0 0 1
5796 306 20 0.177 21.630561412679352 0.18765848881938618 -0.005419165360201816 0 0 1
5805 306 20 0.236 23.728605845109552 2.6933049617827804 3.952704762250482 0 0 1
5809 306 20 0.06900000000000001 24.233312056044507 4.94997040977856 2.4375051626351913 0 0 1
6052 319 20 0.236 17.49561410912114 6.7443453910367595 1.0327880694452272 0 0 0
9353 493 62 0.265 24.68950779766175 12.664819892614489 20.11387995554477 0 0 0
974 52 62 0.265 15.772929151327201 0.20850893892511335 7.0259622052251665 0 1 0
3220 170 63 -0.156 21.2191124698251 7.3385576989087475 7.09116213911925 0 0 0
1670 88 20 0.074 22.203641663495674 23.71468962133583 24.02843959218692 0 0 0
464 25 62 0.049 -0.6825810608500887 22.77133218221576 15.64869180666361 0 0 0
10808 762 31 -0.413 4.876561214780135 7.127976786859717 3.747034328945828 0 0 1
5064 267 20 0.236 1.3881355666579065 8.760137547783868 -0.29687286328805756 1 0 0
1410 75 20 0.177 5.091394544639479 12.300333697642886 0.49696964764659235 0 1 0
5072 267 20 0.074 0.45779346612099103 6.604020356553276 3.562673237397684 1 0 0
10850 770 31 -0.413 0.2511188636830102 13.641648378109842 4.931000281725655 1 0 0
5063 267 63 -0.156 1.2599015804899176 9.559749229967341 0.5284401704665869 1 0 0
10848 770 31 -0.413 0.28933111331397954 14.782851278940942 6.8040153184279495 1 0 0
1408 75 64 -0.382 4.125996209475093 11.990305931479782 0.06439988192242241 0 1 0
5067 267 64 0.104 1.8125710284590988 8.05611007439365 2.555343908221528 1 0 0
5073 267 20 0.074 0.2901317032050177 8.369930620160867 4.089064394837057 1 0 0
5070 267 12 -0.186 0.5126752634027791 7.659833475814773 3.301638775922765 1 0 0
5061 267 20 0.242 1.9046593775836507 10.716024871955508 3.439313458662699 1 0 0
5062 267 62 0.049 1.6648592736047383 9.334497354163998 1.8634846459089718 1 0 0
5060 267 63 -0.099 1.5224234648589015 10.553763329925166 2.492123388655612 1 0 0
10849 770 31 -0.413 0.6217792212567907 15.8593970802971 4.876891299357299 1 0 0
10847 770 56 0.652 -0.1300754956017134 14.84730979276478 5.496522832302838 1 0 0
6578 347 20 0.177 1.536344052396624 14.881675808950593 2.0868892089931914 0 0 1
6576 347 64 -0.382 2.5429852885374737 15.167178733667237 2.3968217281204285 0 0 1
6579 347 62 0.265 3.029913807460711 15.83580281637472 1.1829597987545493 0 0 1
6577 347 20 0.177 2.5113592244168896 15.898114609334552 3.224716065630491 0 0 1
6580 347 63 -0.099 4.262343030426117 15.89770681778327 0.5905713754015098 0 0 1
6575 347 20 0.177 3.1457292819609886 14.392068908007055 2.796417661468064 0 0 1
1773 94 63 -0.099 5.086151299236329 10.869911156236924 6.806807377785772 0 0 0
1772 94 62 0.265 6.195080265144929 10.027012096894243 6.624157190987614 0 0 0
1774 94 20 0.242 4.853091227623123 11.821118321966956 6.2834306136492035 0 0 0
12 1 20 0.236 4.6371774351531725 15.117242350940746 7.092628071301151 0 0 1
2 1 64 -0.382 6.986115141428789 16.30934707528873 5.811782404131371 0 0 1
10574 715 31 -0.413 4.674713250261212 11.47122749025952 3.240588799910027 0 0 0
4 1 20 0.177 7.225774881529196 16.05460598051238 6.81667125464601 0 0 1
6581 347 20 0.242 5.1429378070028315 15.744081842926416 1.2142991963222243 0 0 1
1418 75 20 0.236 5.088640910539554 9.328407292612956 0.6716101925490838 0 1 0
1417 75 63 -0.2 4.778945650614513 9.577950698072824 -0.37214838649337295 0 1 0
10573 715 31 -0.413 6.142279313399872 12.49196767531957 4.565872059547568 0 0 0
5 1 62 0.265 5.5738741902729085 16.725028260044972 5.871562493449411 0 0 1
1784 94 20 0.074 1.1369224503042055 11.230436734501271 8.271317923474843 0 0 0
11 1 63 -0.2 4.557823468139511 16.087115060525065 6.5971934403376205 0 0 1
1769 94 64 -0.382 6.756668305870333 9.908035387479291 5.240933511319957 0 0 0
1771 94 20 0.177 5.92541261635169 9.780297462077687 4.535031085666675 0 0 0
10572 715 56 0.652 5.798871380200952 12.285439415660843 3.2754934436525582 0 0 0
8686 458 20 0.177 -0.20656578924542746 17.816473039901616 24.890748979175534 1 0 0
1409 75 20 0.177 3.4802137214087434 11.875453019303713 0.9239065007233718 0 1 0
5059 267 62 0.265 0.8613653928389029 11.382806279232662 1.723145194320011 1 0 0
5065 267 63 -0.2 0.7574789017427346 10.812148485969459 0.4970598211357864 1 0 0
1775 94 62 0.049 4.552742307174705 10.621568511806107 8.00622120185509 0 0 0
1781 94 20 0.06900000000000001 3.315770445120216 12.312375695889719 8.172471738734359 0 0 0
1780 94 64 0.104 3.3124398702671574 11.2668962821014 8.576044363062698 0 0 0
5056 267 64 -0.382 0.38849507578016707 12.725188725399931 2.1262342381859907 1 0 0
2682 142 20 0.177 7.394221661553802 10.50619240662483 -0.5049991809754268 0 1 0
10575 715 31 -0.413 5.538984138584446 13.49435234599783 2.6536893034723126 0 0 0
10571 715 31 -0.413 6.89210815841147 11.692256332059774 2.6119889177174174 0 0 0
1782 94 20 0.06900000000000001 3.367824051251704 11.295971280313157 9.706977743882334 0 0 0
5058 267 20 0.177 1.122887602820613 13.216957738526022 2.714469741727458 1 0 0
5055 267 20 0.177 0.36977627551039727 13.263939885624389 1.1578004484079225 1 0 0
2691 142 20 0.236 7.566008717345127 8.680216611487216 2.448645221436098 0 1 0
1 1 20 0.177 7.193043816244985 15.487679647859224 5.066155022754785 0 0 1
10141 629 31 -0.413 14.83696224643213 6.2546104943311995 24.91013853782631 0 0 0
1778 94 63 -0.2 6.352626604460157 9.229405837004984 7.761059893335183 0 0 0
1776 94 63 -0.156 5.341578321415547 9.684089828090515 8.622820949420259 0 0 0
1783 94 12 -0.186 2.0201595509939296 10.639905453229506 8.121985527495253 0 0 0
5066 267 20 0.236 0.4933232300828627 11.312719513534814 -0.3900345852299812 1 0 0
3 1 20 0.177 7.520453317353994 17.242570768602736 5.507413976661421 0 0 1
2698 142 20 0.074 12.469871947631345 8.43854063069455 3.432337173262362 0 1 0
9383 494 12 -0.186 14.533456299740445 7.577018756286295 5.739020540699246 0 0 0
2697 142 20 0.074 13.66065706335199 9.59880188905775 3.7153730806421867 0 1 0
3624 191 20 0.06900000000000001 7.843796379898057 0.37631958680044897 21.07330327219402 0 0 0
2188 116 20 0.177 22.94038942331302 23.42940802465754 18.55508587798905 0 0 0
462 25 63 -0.099 -0.35314437553068206 21.486422544249766 15.33399988119908 0 0 0
1768 94 20 0.177 7.512503604509009 10.678714493153288 5.006811179594839 0 0 0
6047 319 62 0.265 16.28986786048001 9.442582386143462 -0.060173870388312234 0 0 0
2689 142 20 0.236 9.5644660265265 8.772580981403488 4.026258871984217 0 1 0
9385 494 20 0.074 14.12224911613751 8.132736910776298 4.870230665698753 0 0 0
1650 87 12 -0.186 20.837646607876632 -0.5574356771769927 18.420452748331744 0 0 0
2693 142 20 0.06900000000000001 11.230859739097973 10.637268116697413 4.079275289349977 0 1 0
2695 142 12 -0.186 12.776400094398491 9.425983153005927 3.0996253706319816 0 1 0
2692 142 64 0.104 11.574907317953212 10.40364544169988 3.0866564869576165 0 1 0
2694 142 20 0.06900000000000001 11.760722838723876 11.346939511255325 2.4862695071249896 0 1 0
2686 142 20 0.242 10.415249702887857 10.897833497714291 0.35541513993246143 0 1 0
2685 142 63 -0.099 9.924003779829713 10.285330994737743 1.1847751810830252 0 1 0
11723 945 31 -0.413 12.052151113108003 14.81158073604692 0.05947444265767243 0 0 1
2687 142 62 0.049 10.466279349345166 9.812566817708651 2.3855627864053535 0 1 0
2681 142 64 -0.382 7.933802479533634 9.656361956728254 -0.27161720595789807 0 1 0
2684 142 62 0.265 8.692168371310927 9.708364686346874 1.0452546555138653 0 1 0
2690 142 63 -0.2 8.542404131690732 8.834661276093462 2.0737397012710197 0 1 0
2688 142 63 -0.156 9.540964460160746 8.936458693396743 2.950635875931663 0 1 0
11722 945 56 0.652 12.589243331202741 13.764465555310103 0.7551151793552389 0 0 1
2510 133 64 -0.382 10.02908073946235 13.15177531903791 6.561569428126901 0 0 0
11724 945 31 -0.413 11.592985154659091 13.266442713564834 1.6071255574451202 0 0 1
2509 133 20 0.177 11.011698469756327 13.183424603974837 7.097252811533895 0 0 0
2512 133 20 0.177 9.98506248144007 12.130548184666052 6.2899730032124985 0 0 0
2520 133 20 0.236 9.901385280700556 15.930783667981519 6.286275920909946 0 0 0
2513 133 62 0.265 9.966451278874727 13.976632566381728 5.382236286439033 0 0 0
2519 133 63 -0.2 10.132854539201729 15.379348320568198 5.337486605383108 0 0 0
2514 133 63 -0.099 9.408806518701057 13.68410316057381 4.174533914910357 0 0 0
11721 945 31 -0.413 13.638555373001331 14.217039998882633 1.5551531036266764 0 0 1
11725 945 31 -0.413 13.011334585787196 12.806673102556818 -0.2074311544028229 0 0 1
2515 133 20 0.242 9.29578314276707 12.702869753789706 3.82725025862303 0 0 0
2680 142 20 0.177 7.369274552116037 8.711899677890374 -0.269189787384997 0 1 0
9386 494 20 0.074 15.449555453163981 8.096566936402265 6.012410909557274 0 0 0
2516 133 62 0.049 9.176682316422292 14.775941568174337 3.4009706269706435 0 0 0
2523 133 20 0.06900000000000001 7.7540294701087245 14.015903181935208 2.3232540531973878 0 0 0
2525 133 20 0.074 8.096514392762199 15.620537227081005 0.10890623466804539 0 0 0
2527 133 20 0.074 9.629460551625419 14.917422977432919 0.3608356323841362 0 0 0
2517 133 63 -0.156 9.749554167789043 15.844839199659084 4.11292651770368 0 0 0