LAMMPS data file via write_data, version 2 Aug 2023, timestep = 2000000, units = real

12000 atoms
69 atom types
11500 bonds
258 bond types
19500 angles
165 angle types
20500 dihedrals
47 dihedral types
2500 impropers
5 improper types

0.07082298947362986 49.92917701052376 xlo xhi
0.07082298947362986 49.92917701052376 ylo yhi
0.07082298947362986 49.92917701052376 zlo zhi

Masses

1 15.9994
2 15.9994
3 15.9994
4 15.9994
5 15.9994
6 14.0067
7 14.0067
8 14.0067
9 14.0067
10 14.0067
11 14.0067
12 12.011
13 12.011
14 13.019
15 14.027
16 15.035
17 16.043
18 14.027
19 12.011
20 1.008
21 1.008
22 1
23 32.06
24 63.546
25 63.546
26 55.847
27 65.37
28 24.305
29 40.08
30 39.948
31 18.9984
32 35.453
33 79.904
34 12.011
35 15.9994
36 22.9898
37 35.453
38 12.011
39 35.453
40 1.008
41 32.06
42 12.011
43 15.9994
44 12.011
45 35.453
46 18.9984
47 12.011
48 13.019
49 15.9994
50 12.011
51 15.9994
52 14.0067
53 15.035
54 126.90447
55 35.453
56 10.811
57 78.95999999999999
58 1.008
59 35.453
60 79.904
61 15.9994
62 14.0067
63 12.011
64 12.011
65 14.0067
66 14.0067
67 15.9994
68 28.08
69 30.9738

Pair Coeffs # lj/cut/coul/long

1 0.305714 2.76007
2 0.412295 2.62585
3 0.203061 2.95484
4 0.252656 2.84916
5 0.155394 3.16565
6 0.152915 3.13647
7 0.0700622 3.5722
8 0.152915 3.13647
9 0.104651 3.34113
10 0.152915 3.13647
11 0.152915 3.13647
12 0.0663015 3.58118
13 0.00167194 6.63949
14 0.0226791 5.01918
15 0.098122 4.07038
16 0.207254 3.74792
17 0.302012 3.70995
18 0.11455 3.95474
19 0.120138 3.74119
20 0.0282937 2.37341
21 0 0
22 0 0
23 0.455513 3.30769
24 2.039 1.5184
25 2.039 1.5184
26 0 0
27 1.107 1.68112
28 0.0747249 1.93323
29 0.121156 2.81311
30 0.238148 3.40984
31 0.10897 2.94006
32 0.300087 3.46982
33 0.69792 3.6508
34 0.243126 3.60124
35 0.131455 3.17694
36 0.00509651 3.12117
37 0.162149 4.09571
38 0.101741 3.40006
39 0.299511 3.44
40 0.0197496 2.20219
41 0.310038 3.55995
42 0.207254 3.74792
43 0.409923 2.63004
44 0.0544087 3.7739
45 0.270582 3.44757
46 0.0828967 3.07717
47 0.0970049 3.3611
48 0.117014 3.91992
49 0.203061 2.95484
50 0.105027 3.74991
51 0.210013 2.95998
52 0.169966 3.25006
53 0.207254 3.74792
54 0.836845 3.84961
55 0.329921 3.26983
56 0.0663015 3.58118
57 0.455513 3.30769
58 0 0
59 0.329921 3.26983
60 0.580843 3.89995
61 0.119432 3.40025
62 0.1399 3.9019
63 0.0734574 3.52053
64 0.245018 2.81144
65 0.142655 4.06776
66 0.219779 3.64529
67 0.119497 3.1
68 0.584786 3.38557
69 0.584786 3.38557

Bond Coeffs # harmonic

1 375.239 1
2 446.941 1
3 349.274 1.09
4 1109.29 1.12
5 600.242 1.23
6 500.418 1.25
7 499.732 1.32
8 375.003 1.33
9 448.144 1.33
10 498.877 1.33
11 450.617 1.34
12 502.116 1.34
13 450.906 1.36
14 500.679 1.38
15 399.904 1.39
16 498.726 1.39
17 400.057 1.4
18 399.792 1.43
19 450.132 1.43
20 300.222 1.435
21 449.843 1.47
22 299.976 1.48
23 399.968 1.48
24 450.226 1.48
25 450.108 1.5
26 299.844 1.52
27 400.034 1.53
28 299.851 1.61
29 299.727 1.63
30 205.976 1.78
31 449.816 1.78
32 449.828 1.83
33 300.045 1.87
34 59.9679 1.98
35 60.0382 2
36 500.307 2.04
37 63.0357 2.21
38 554.493 1
39 349.928 1.1
40 599.794 1.758
41 449.829 1.53
42 444.341 1.93799
43 599.679 1.76
44 501.026 1.265
45 448.656 1.35
46 555.129 1.63299
47 350.249 2.33839
48 600.161 2.90283
49 445.884 2.79388
50 443.815 2.91189
51 409.328 2.077
52 600.173 2.87407
53 88.4321 1.1
54 56.1663 1.84
55 513.862 1.01
56 310.707 1.41
57 442.161 1.02
58 239.006 1.46
59 513.862 1.29
60 442.161 0.972
61 812.62 1.22
62 466.061 1.22
63 239.006 1.54
64 179.254 1.56
65 227.055 1.54
66 106.358 1.76
67 131.453 1.69
68 203.155 1.75
69 203.155 1.51
70 143.403 1.57
71 179.254 0.971
72 191.205 1.5
73 262.906 1.45
74 549.713 1.52
75 83.652 1.03
76 191.205 1.74
77 191.205 1.72
78 227.055 1.64
79 203.155 1.67
80 191.205 1.66
81 215.105 1.65
82 513.862 1.31
83 155.354 1.01
84 35.8509 1.89
85 101.577 1.93
86 155.354 1.36
87 167.304 1.79
88 114.723 1.35
89 155.354 1.39
90 203.155 1.38
91 227.055 0.983
92 155.354 1.3
93 418.26 1.08
94 155.354 1.9
95 1314.53 1.16
96 143.403 1.8
97 155.354 1.42
98 478.011 0.984
99 119.503 1.08
100 119.503 1.91
101 418.26 1.03
102 525.813 1.28
103 131.453 1.22
104 143.403 1.11
105 1195.03 1.21
106 466.061 1.07
107 956.023 1.21
108 693.117 1.21
109 87.2371 1.85
110 394.359 1.11
111 109.943 2.09
112 131.453 1.82
113 99.1874 1.96
114 56.1663 1.86
115 167.304 1.21
116 167.304 1.28
117 143.403 1.71
118 131.453 1.6
119 454.111 1.21
120 41.826 1.61
121 131.453 1.94
122 155.354 1.59
123 143.403 2.1
124 119.503 2.12
125 57.3614 2.13
126 203.155 1.26
127 1195.03 1.14
128 191.205 1.23
129 788.719 1.3
130 239.006 1.31
131 59.7514 2.04
132 82.457 1.34
133 621.415 0.938
134 310.707 1.16
135 34.6558 2.07
136 60.9465 1.16
137 93.2122 2.16
138 43.021 2.23
139 23.9006 2.05
140 896.272 1.19
141 728.967 1.47
142 394.359 1.57
143 1195.03 1.18
144 54.9713 1.87
145 1063.58 1.17
146 215.105 1.13
147 59.7514 2.02
148 179.254 1.07
149 250.956 1.14
150 155.354 1.06
151 537.763 1.46
152 812.62 1.17
153 92.0172 2.15
154 239.006 1.04
155 60.9465 1.4
156 1314.53 1.11
157 466.061 1.56
158 752.868 1.49
159 501.912 1.54
160 35.8509 2.17
161 35.8509 2.27
162 669.216 1.45
163 764.818 1.25
164 848.47 1.27
165 561.663 1.16
166 1434.03 1.14
167 501.912 1.17
168 537.763 1.19
169 920.172 1.14
170 227.055 1.24
171 1434.03 1.13
172 89.6272 2.91
173 57.3614 2.24
174 418.26 0.743
175 239.006 1.2
176 111.138 2.33
177 96.7973 2.42
178 83.652 1.32
179 1159.18 1.2
180 1314.53 1.2
181 430.21 1.58
182 53.7763 1.47
183 1.55354 2.77
184 5.13862 2.25
185 100.382 2.18
186 50.1912 1.52
187 93.2122 2.19
188 27.4857 1.48
189 1912.05 1.07
190 8.60421 2.8
191 87.2371 2.52
192 0.669216 2.79
193 812.62 1.16
194 1.79254 2.68
195 406.31 1.59
196 119.503 1.18
197 34.6558 2.54
198 1792.54 1.1
199 824.57 1.29
200 33.4608 2.44
201 107.553 2.41
202 112.333 2.36
203 20.3155 1.43
204 2.27055 2.57
205 19.1205 2.47
206 0.764818 2.71
207 1553.54 1.12
208 3.70459 2.75
209 501.912 1.14
210 0.717017 2.86
211 10.5163 2.64
212 1912.05 0.985
213 1.91205 2.61
214 7.40918 2.62
215 59.7514 2.46
216 3.58509 2.66
217 1.31453 2.72
218 58.5564 1.63
219 573.614 1.12
220 37.0459 2.32
221 16.7304 1.44
222 1553.54 1.16
223 7.17017 2.69
224 10.0382 2.49
225 3.22658 2.92
226 0.82457 2.29
227 9.79924 2.4
228 1.03967 2.37
229 1.55354 2.94
230 5.85564 2.95
231 1.67304 2.96
232 0.0131453 2.56
233 5.25813 2.59
234 15.5354 2.38
235 836.52 1.12
236 1.91205 2.5
237 2.39006 2.3
238 585.564 1.04
239 3.34608 2.99
240 0.967973 2.34
241 1.07553 2.98
242 2.27055 2.74
243 1063.58 1.16
244 812.62 1.5
245 1.31453 2.84
246 0.322658 2.82
247 908.222 1.23
248 466.061 1.05
249 3.34608 2.88
250 1434.03 1.18
251 1673.04 1.15
252 6.33365 2.9
253 1027.72 1.24
254 418.26 1.9
255 2270.55 1.08
256 1434.03 1.21
257 764.818 0.975
258 0 0

Angle Coeffs # harmonic

1 45.3116 90
2 50.0917 90
3 47.7712 96
4 54.9551 100
5 47.5559 103
6 55.0345 104
7 50.1709 108
8 30.1731 109.5
9 33.8897 109.5
10 40.2609 109.5
11 45.0394 109.5
12 47.694 109.5
13 55.1272 109.5
14 47.635 109.6
15 55.1139 111
16 55.0997 113
17 4.824 115
18 45.0699 115
19 59.7937 115
20 44.8085 116
21 59.7719 116
22 60.1639 117
23 34.88 120
24 39.8095 120
25 45.1871 120
26 47.4278 120
27 50.1166 120
28 59.9756 120
29 69.8346 120
30 60.0726 121
31 60.091 122
32 34.8146 123
33 59.8929 124
34 30.0075 125
35 60.0779 125
36 44.9139 126
37 49.998 126
38 60.166 126
39 50.1189 132
40 47.5187 155
41 28.4971 180
42 45.9951 109.5
43 52.4767 107.57
44 65.472 111.3
45 55.0189 97.4
46 55.0247 106.75
47 47.5019 108.53
48 65.5335 109.5
49 54.9566 107.6
50 47.4817 109.5
51 54.9931 110.3
52 55.0234 111.4
53 60.044 117.2
54 60.0023 121.4
55 48.24 180
56 180.46 109
57 192.229 106
58 145.153 126
59 145.153 96.2
60 156.922 114
61 203.998 119
62 239.306 130
63 298.152 107
64 156.922 134
65 239.306 101
66 286.382 113
67 368.766 134
68 356.997 119
69 333.459 126
70 251.075 89.6
71 380.536 114
72 286.382 135
73 145.153 88.3
74 133.384 60
75 380.536 179
76 251.075 180
77 470.766 178
78 47.0766 59.9
79 47.0766 60.3
80 251.075 124
81 706.149 118
82 117.691 144
83 627.688 123
84 470.766 118
85 333.459 94.8
86 90.2301 175
87 156.922 82.8
88 117.691 77.6
89 239.306 145
90 251.075 50.8
91 380.536 104
92 262.844 84.4
93 215.768 63.3
94 215.768 61
95 298.152 173
96 192.229 173
97 82.384 50.9
98 431.535 127
99 62.7688 67.8
100 156.922 180
101 588.457 118
102 30.1731 110
103 227.537 94.8
104 431.535 173
105 34.5228 78.5
106 70.6149 138
107 70.6149 168
108 156.922 167
109 18.046 149
110 333.459 144
111 356.997 148
112 321.69 144
113 356.997 148
114 321.69 147
115 333.459 144
116 5099.96 60.8
117 1451.53 68
118 298.152 161
119 156.922 155
120 309.921 154
121 215.768 75.3
122 309.921 64.7
123 549.227 173
124 3334.59 45.8
125 863.071 123
126 549.227 123
127 470.766 166
128 380.536 166
129 203.998 139
130 66.6918 161
131 7.45379 44.9
132 25.1075 84.8
133 192.229 161
134 333.459 70.4
135 627.688 173
136 1.92229 51.6
137 21.5768 73.3
138 7.45379 174
139 470.766 132
140 145.153 69.9
141 15.6922 144
142 1922.29 97.9
143 392.305 155
144 588.457 104
145 117.691 149
146 509.996 157
147 286.382 166
148 333.459 89.8
149 392.305 79.1
150 6669.18 45.2
151 470.766 101
152 745.379 125
153 168.691 49.6
154 509.996 112
155 470.766 107
156 298.152 59.6
157 239.306 70.2
158 3923.05 100
159 3923.05 100
160 1059.22 46.3
161 1176.91 46.3
162 431.535 94.1
163 509.996 69.6
164 470.766 139
165 666.918 132

Dihedral Coeffs # harmonic

1 0.638145 -1 1
2 0.81501 -1 1
3 1.18786 -1 1
4 1.40057 -1 1
5 2.2347 -1 1
6 2.2586 -1 1
7 0.666826 1 1
8 1.27868 1 1
9 0.365679 -1 2
10 1.40057 -1 2
11 1.69933 -1 2
12 3.9914 -1 2
13 5.73614 -1 2
14 8.00669 -1 2
15 9.99044 -1 2
16 0 1 2
17 0.0999044 1 2
18 0.499522 1 2
19 0.750478 1 2
20 1.21654 1 2
21 3.9914 1 2
22 0.250956 1 3
23 0.301147 1 3
24 0.310707 1 3
25 0.604685 1 3
26 0.700287 1 3
27 0.762428 1 3
28 0.872371 1 3
29 0.901052 1 3
30 0.932122 1 3
31 0.999044 1 3
32 1.12094 1 3
33 1.30019 1 3
34 1.41491 1 3
35 1.83795 1 3
36 2.06023 1 3
37 2.27055 1 3
38 0 1 4
39 0.239006 -1 6
40 0.239006 1 6
41 0.901052 1 6
42 0.83652 -1 2
43 0.669216 1 3
44 0.167304 -1 6
45 0.0956023 1 6
46 0.239006 -1 3
47 0 1 1

Improper Coeffs # harmonic

1 20.0075 0
2 40.0151 35.2644
3 80.0302 0
4 20.0075 180
5 40.0151 -35.2644

Atoms # full

10807 762 56 0.652 4.2812584956884745 1.506679312591971 7.074341058405139 0 0 1
9016 475 20 0.236 6.890623403122859 3.466743593436234 4.644601587653447 0 0 1
11907 982 56 0.652 4.67489524410012 6.210293478819102 2.834238267099276 1 0 0
9014 475 62 0.049 7.705010079398183 4.860350133034186 6.10379708320802 0 0 1
11908 982 31 -0.413 5.022318111296567 4.887580980888363 2.8750107678907475 1 0 0
2149 114 64 -0.382 2.5196058604019873 4.672756711352494 5.97491140318466 0 0 0
2151 114 20 0.177 2.1270133139234475 5.654524057753079 6.095589442408518 0 0 0
2152 114 62 0.265 1.6392052337763146 3.8102880317432457 5.18990085097678 0 0 0
2148 114 20 0.177 2.7950126061776737 4.253526321699975 6.964974397530725 0 0 0
11909 982 31 -0.413 3.302537077339593 6.370638850205797 2.969519530852752 1 0 0
4844 255 20 0.074 5.881368715560474 1.9604839169321429 3.269953671978889 0 1 1
4842 255 12 -0.186 4.949631125967128 1.581616088870245 2.99895339639926 0 1 1
9019 475 64 0.104 6.443850656348945 5.51386742388951 6.426319359678253 0 0 1
9022 475 12 -0.186 5.930599149747965 5.396239988128863 7.851422934513308 0 0 1
11910 982 31 -0.413 5.422489814953911 6.966837696988318 3.7595828004435115 1 0 0
9021 475 20 0.06900000000000001 6.590518720235178 6.570384099828328 6.135258581798226 0 0 1
11906 982 31 -0.413 5.110667332308426 6.73479586873219 1.6037097788145815 1 0 0
2158 114 63 -0.2 1.6631604506543696 3.5333800889503424 3.8500754021051105 0 0 0
2150 114 20 0.177 3.4275184340636615 4.776860211017757 5.403401200707989 0 0 0
2159 114 20 0.236 2.3365001918851607 3.983203936821673 3.1907863797819496 0 0 0
4843 255 20 0.074 4.217971097809887 1.7828201331546991 3.755723652520172 0 1 1
9020 475 20 0.06900000000000001 5.694302088639206 5.165235295628724 5.722249603208593 0 0 1
2153 114 63 -0.099 0.6093006578570876 3.132481284905839 5.716864562937388 0 0 0
10806 762 31 -0.413 4.977740919416038 2.4584848070781913 6.3998169554878945 0 0 1
5924 312 20 0.06900000000000001 0.6281143813993293 7.09632510184011 6.547762414513506 1 1 0
4845 255 20 0.074 4.658481402191671 2.0104787408649356 2.084689775903322 0 1 1
10810 762 31 -0.413 3.2231496343239763 2.0821656355868052 7.78231370828098 0 0 1
1771 94 20 0.177 2.8951033532733748 4.964702508901804 0.8377937051628648 0 0 0
1772 94 62 0.265 1.2296406421950987 6.11683725282311 0.3780370698193408 0 0 0
2154 114 20 0.242 0.4137076973684579 2.911402982391858 6.753622273098856 0 0 0
11575 915 31 -0.413 1.6384000114126018 2.6523147636520736 0.50978294393537 0 1 1
1770 94 20 0.177 3.251050606591119 6.622847481560931 0.1989458061075091 0 0 0
1778 94 63 -0.2 0.7284975310745991 7.057049277091419 1.2291491733971527 0 0 0
9015 475 63 -0.156 7.7274502180197056 3.791045709288129 5.204560957097399 0 0 1
5244 276 20 0.074 22.372114204250412 24.997422014529214 2.2959072433513765 0 0 0
2156 114 63 -0.156 0.621283444237991 2.717474852273545 3.5641500660554803 0 0 0
5055 267 20 0.177 6.907535506053438 0.5012491119716496 5.344676419954317 1 0 0
1779 94 20 0.236 1.292137004032367 7.8743398743072985 1.5634363531432336 0 0 0
5927 312 20 0.074 1.0875027684758747 8.671052928895586 4.707749181073072 1 1 0
894 48 20 0.177 21.335472287508303 24.542477161510224 19.960193510171603 0 0 0
6759 356 20 0.06900000000000001 8.289551391656333 5.1562038794951635 2.5086687297575803 0 0 0
10808 762 31 -0.413 5.111572283551762 0.800597800628806 7.96940470350738 0 0 1
1769 94 64 -0.382 2.63899383145476 5.766035747565297 0.12639310035549017 0 0 0
10489 698 31 -0.413 1.3700805809585044 1.08548807483191 15.557042448213721 1 1 0
669 36 20 0.177 5.329138184018195 20.17531988735114 24.437632589584652 0 0 0
11574 915 31 -0.413 0.258267438571133 0.8616805190329846 0.8237133323853036 0 1 1
10809 762 31 -0.413 3.696173169977871 0.6515452024128838 6.167315835382705 0 0 1
4080 215 20 0.06900000000000001 6.3881865178969655 3.722918485047731 0.44917601489160836 0 0 1
8776 462 20 0.074 1.017943161861675 24.713031160747615 6.676123744759511 1 0 0
9327 491 20 0.074 24.1214844389716 14.489097671677337 19.81690662299176 0 1 0
6754 356 63 -0.156 7.713811404258417 7.921023044371985 1.4325776425636887 0 0 0
9745 549 31 -0.413 8.321119627180478 2.0680215387916348 1.6411318777408865 0 0 1
6760 356 20 0.06900000000000001 8.70029077649729 6.593071140343712 3.463663850921938 0 0 0
6762 356 20 0.074 10.638432810284728 4.873412613214502 1.7825239624498606 0 0 0
6753 356 62 0.049 8.576808575118836 6.866388311252483 1.4607501586901361 0 0 0
6761 356 12 -0.186 10.467458823067014 5.647157098820433 2.5249400539778546 0 0 0
6763 356 20 0.074 11.081371323691364 6.535292030788692 2.2265487996334046 0 0 0
9742 549 56 0.652 8.954121650157607 0.8646180897979616 2.1185887267100627 0 0 1
9017 475 63 -0.2 8.992894428459888 3.28795026615218 5.310080640901942 0 0 1
9012 475 63 -0.099 8.846432937129261 4.940659168208284 6.771453139265968 0 0 1
9018 475 20 0.236 9.342511670795254 2.532910416984618 4.590797931126977 0 0 1
9741 549 31 -0.413 10.363040505002987 1.1118829847677068 2.1107511902403817 0 0 1
9011 475 62 0.265 9.652778569536249 3.972936181391371 6.337269184749826 0 0 1
9007 475 20 0.177 11.544916564883659 3.1532031950040857 5.812503433602529 0 0 1
9008 475 64 -0.382 11.094997329837069 3.7924041231849497 6.674428722711562 0 0 1
6758 356 64 0.104 8.948060221994409 6.021620950734572 2.6233353279045595 0 0 0
6764 356 20 0.074 10.80401990138969 5.157307476982386 3.4491037688169337 0 0 0
2688 142 63 -0.156 14.181609992665916 2.7678259756549584 3.723526336029664 0 1 0
2689 142 20 0.236 14.171620037366434 2.7783603727786064 4.790933784251425 0 1 0
2687 142 62 0.049 15.343891345519038 2.839357684402824 2.9763168069168544 0 1 0
2690 142 63 -0.2 13.080369240397541 2.7189786407411045 2.91146879522979 0 1 0
2685 142 63 -0.099 15.007699474981068 2.796136097562949 1.6956024888464285 0 1 0
2684 142 62 0.265 13.635410823173178 2.568697391244995 1.638770825145521 0 1 0
2691 142 20 0.236 12.115826467498579 2.2303148977152567 3.081020683006746 0 1 0
10955 791 31 -0.413 10.94397626225335 7.109549879782376 7.481887883077812 0 0 0
4738 250 20 0.242 13.471303050170174 6.261522770655262 7.359229611252535 0 0 0
2686 142 20 0.242 15.737207038888398 2.7872329253834094 0.916202626841915 0 1 0
10953 791 31 -0.413 12.274049942422048 7.186029999652619 5.642984111259438 0 0 0
10952 791 56 0.652 11.059409278150062 7.704097955735207 6.236508013105609 0 0 0
10954 791 31 -0.413 9.946954537942307 7.424842166266317 5.381087251023375 0 0 0
1422 75 12 -0.186 14.140263725613291 6.540651581233985 2.599049852441723 0 1 0
1423 75 20 0.074 15.021128730841411 5.9574110639085305 2.53392825902326 0 1 0
1425 75 20 0.074 13.538441903408222 6.335246464268468 1.708966185210005 0 1 0
2681 142 64 -0.382 12.895647172826017 2.527111948020684 0.4562359043723113 0 1 0
10036 608 31 -0.413 14.982315873667362 4.651263529046138 5.829385187938089 0 1 0
10037 608 56 0.652 16.129468378609324 4.418505331495298 6.6624253940372755 0 1 0
1424 75 20 0.074 13.681528603141302 6.1100598212021 3.4811527325169256 0 1 0
9010 475 20 0.177 11.13458317962065 3.295458359761163 7.648362375849619 0 0 1
9013 475 20 0.242 9.128905634513405 5.6441994045328014 7.601139017663183 0 0 1
11678 936 31 -0.413 12.828198273326302 0.9002396435037172 7.406103210579639 0 0 0
11679 936 31 -0.413 12.161061256420533 0.4936788926336735 5.258962772979197 0 0 0
4732 250 20 0.177 15.148738738952495 7.847676181728981 6.345466825997632 0 0 0
2682 142 20 0.177 11.919755201209487 2.7495553371195727 0.7656961331174035 0 1 0
9009 475 20 0.177 11.649498980306856 4.680347341220572 6.79674626463803 0 0 1
1419 75 64 0.104 14.509690772329625 8.0404663752463 2.703327229238741 0 1 0
1421 75 20 0.06900000000000001 15.220732609811408 8.24629296109992 1.9504934650697847 0 1 0
4733 250 64 -0.382 14.796042156194932 8.665615605421197 6.9704838220306 0 0 0
4735 250 20 0.177 15.683826480616926 9.258963107507032 7.114712851759217 0 0 0
10039 608 31 -0.413 16.60498889041568 3.104717423855133 6.4368332951981 0 1 0
1420 75 20 0.06900000000000001 14.973997812288342 8.26652437271535 3.6938196976566786 0 1 0
1587 84 20 0.236 17.992375672756097 0.2365952795185251 14.83145078934531 0 1 0
7223 381 20 0.177 0.6766460224430347 16.122714292574692 11.70053451637535 0 0 0
10227 646 56 0.652 20.08235391802038 10.847703329227134 0.10330103225803641 0 0 1
10038 608 31 -0.413 17.15387141743514 5.334582434342538 6.367899419365015 0 1 0
6751 356 63 -0.099 9.091980207314023 6.7793161247243505 0.17400134260629596 0 0 0
2694 142 20 0.06900000000000001 16.480802702056923 2.066666929894301 4.494427061988233 0 1 0
2692 142 64 0.104 16.658557348181038 2.5519905598619173 3.552288299141043 0 1 0
2698 142 20 0.074 17.12674904827041 4.53192879252177 4.202362881726756 0 1 0
9864 573 31 -0.413 16.905710784371184 5.674448164968503 0.59917219518313 0 0 1
2697 142 20 0.074 17.7427682110961 4.243321893738477 2.727857276134021 0 1 0
2693 142 20 0.06900000000000001 17.04479025364414 1.8726489226279728 2.867949617450362 0 1 0
2695 142 12 -0.186 17.650258474579736 3.7161924110977993 3.648281519201957 0 1 0
2696 142 20 0.074 18.618907103108786 3.3942540122026683 3.990309180159124 0 1 0
5804 306 63 -0.156 24.107308426400152 4.359638039200779 3.4084346256770046 0 0 1
5803 306 62 0.049 24.054991316757228 5.164956602727658 4.518196920585117 0 0 1
5809 306 20 0.06900000000000001 23.2471022863384 5.4709564815181135 6.409653962117978 0 0 1
5811 306 12 -0.186 21.650118317978094 5.81982071617216 5.034829694067744 0 0 1
5810 306 20 0.06900000000000001 22.786105466336842 3.9674251661322715 5.533296424234089 0 0 1
5808 306 64 0.104 22.923234082665378 5.07802618053503 5.451680274353369 0 0 1
5812 306 20 0.074 21.936962365172032 6.741164622137362 4.558773690279078 0 0 1
5813 306 20 0.074 20.976432021641514 5.159697782429551 4.417501478460835 0 0 1
5814 306 20 0.074 21.09554932002122 6.2128020215260715 5.909044557556591 0 0 1
8193 432 20 0.177 19.25015768693196 1.4869122892383768 2.746387839403681 0 1 1
5805 306 20 0.236 23.476560679857663 3.457670293479265 3.26229239360209 0 0 1
8191 432 64 -0.382 19.893437041022292 1.7104619449559046 1.9077585227688545 0 1 1
8190 432 20 0.177 20.796800544962913 2.216678176608307 2.2521816935320986 0 1 1
8192 432 20 0.177 19.373400866287078 2.379266973648249 1.2710339711046243 0 1 1
2221 117 20 0.074 22.22945796725728 6.686551614199337 2.0902138214514485 0 0 1
2222 117 20 0.074 21.54338386989334 5.565497922239607 0.839529800942637 0 0 1
11204 841 31 -0.413 21.4377171870442 2.067459424178174 5.0844020786474955 0 1 1
2220 117 12 -0.186 22.23478705177541 6.397352181819064 1.054617356636797 0 0 1
6059 319 20 0.074 18.745288014662727 7.040192300487488 3.6305478305787613 0 0 0
8194 432 62 0.265 20.355164122092436 0.5228324398025801 1.207673432652404 0 1 1
6426 339 20 0.177 18.938058204538752 2.6725425524390003 7.030543833377578 1 1 0
6060 319 20 0.074 17.205317265310377 7.38567649538764 4.301169907552037 0 0 0
11119 824 31 -0.413 23.086357834291793 7.482725360634446 8.18914775614948 0 0 1
11201 841 31 -0.413 19.274992572728966 1.326525684172227 4.8034945030899125 0 1 1
3816 201 12 -0.186 24.357505081960074 1.0490668446244809 6.15418843314009 0 0 0
3818 201 20 0.074 23.596420091112094 1.6929659056387232 6.580826450264324 0 0 0
8473 446 20 0.074 15.085609068850955 12.487643144238733 24.505324398921626 0 0 0
5069 267 20 0.06900000000000001 8.932976035306803 0.8175281053072362 10.660891245863768 1 0 0
9865 573 31 -0.413 17.513407129130616 3.5395135537596363 0.08553726585905229 0 0 1
11225 845 31 -0.413 24.092685510225056 1.8940060026313033 1.6768999328600007 0 0 0
2223 117 20 0.074 23.218564859845806 6.042473119924022 0.7536478194164112 0 0 1
11202 841 56 0.652 20.579004490112606 1.007739035518408 5.258232183277335 0 1 1
6061 319 20 0.074 17.41155420406575 7.256075544389764 2.6426541063665816 0 0 0
6058 319 12 -0.186 17.853086894995688 7.6183390568035705 3.4977689099201026 0 0 0
8474 446 20 0.074 16.62740523918113 12.401256008058407 24.045634838211654 0 0 0
11203 841 31 -0.413 20.599038207277548 0.6109540699531573 6.5726156095775705 0 1 1
8692 458 63 -0.156 0.35386530093012464 19.35363871229917 16.921264044918722 1 0 0
5043 266 62 0.049 2.786494847634898 0.5641905433246491 18.868949438944096 1 1 0
7341 387 20 0.242 0.12371058136736654 17.985763142287325 6.6793376263487385 1 0 0
11350 870 31 -0.413 24.2273751689555 8.842488441579262 1.6393037247439377 0 0 1
9861 573 31 -0.413 19.144560044656625 5.142785815697637 0.3662328661893633 0 0 1
920 49 62 0.049 15.597500330188222 0.47118351010643533 10.04003950684027 0 0 0
4122 217 20 0.074 24.615705318934904 18.644072234405698 14.755048390002637 0 0 0
6755 356 20 0.236 7.297967306666074 8.39630091581308 2.323472940678992 0 0 0
10203 641 31 -0.413 4.78095851919859 8.159033763362904 7.9024203913086986 0 0 0
5925 312 12 -0.186 0.7033300654815137 9.000162656916388 5.62650679252893 1 1 0
77 5 20 0.177 7.859232193810749 9.994640503358191 6.656444689943273 0 0 0
5926 312 20 0.074 1.4892579603385017 9.353228945819495 6.273334869588863 1 1 0
79 5 20 0.177 7.020325930675199 8.831556725505463 5.604006080074832 0 0 0
4957 261 20 0.074 4.212459832152084 11.212303604359185 1.2085324558266868 1 0 0
4958 261 20 0.074 4.12714643194359 9.449127132385104 1.5101025489753586 1 0 0
80 5 20 0.177 8.186066561552968 9.970894009664038 4.839066629005548 0 0 0
78 5 64 -0.382 7.435909279297539 9.822829780119681 5.6393691260525225 0 0 0
88 5 20 0.236 4.5959807394228465 9.487319299782094 5.892392909806589 0 0 0
83 5 20 0.242 7.261875051861037 12.352114188872703 4.471003502317151 0 0 0
81 5 62 0.265 6.255898538693034 10.727522460344954 5.360734577832317 0 0 0
82 5 63 -0.099 6.366088343271374 11.876002815706197 4.688076567725896 0 0 0
87 5 63 -0.2 4.946634966364456 10.330662776405205 5.319053173350133 0 0 0
85 5 63 -0.156 4.205284302780573 11.25424091807917 4.69823278416196 0 0 0
86 5 20 0.236 3.1541344794563275 11.371944347041595 4.500860867872366 0 0 0
84 5 62 0.049 5.112657153191656 12.228718622879793 4.290148540365143 0 0 0
89 5 64 0.104 4.75807662134785 13.530068795501823 3.5695996215112715 0 0 0
91 5 20 0.06900000000000001 4.966501220849721 13.412882214394104 2.480025050959943 0 0 0
90 5 20 0.06900000000000001 3.6968033225641115 13.612572872560792 3.593950647216428 0 0 0
92 5 12 -0.186 5.548502492268393 14.830791471938719 4.003159494924787 0 0 0
95 5 20 0.074 4.920567268903591 15.685920631818714 4.1012172056263605 0 0 0
93 5 20 0.074 6.031634596666715 14.740344922808731 5.026783746742029 0 0 0
4959 261 20 0.074 5.625787003456457 10.326552104084978 1.2144551331050863 1 0 0
4956 261 12 -0.186 4.609610540201402 10.235782793040842 0.909638205889807 1 0 0
94 5 20 0.074 6.251729690172906 15.0399455603368 3.188253962815465 0 0 0
10413 683 31 -0.413 7.398602078346812 13.26954865573028 1.3620625083043585 0 1 1
7353 387 20 0.074 1.8088859430111337 15.923470246895901 3.6985381994920794 1 0 0
7350 387 12 -0.186 1.5022445897410932 16.379662215395676 4.613488892598198 1 0 0
11031 807 31 -0.413 0.9171226497128835 12.904027150081953 3.8817730112192708 0 0 1
11535 907 31 -0.413 8.924709117158539 14.75800201091411 5.985167841825577 0 0 0
11032 807 56 0.652 1.0399776980896123 12.284886538670198 2.7129683512417637 0 0 1
11035 807 31 -0.413 2.1944339755152957 12.758269150335828 2.1058094292172296 0 0 1
2522 133 20 0.06900000000000001 6.83302039358545 15.687539375252099 0.43603844517218904 0 0 0
9620 524 31 -0.413 4.276638199044518 16.27791784054698 6.81481120403511 0 0 0
11034 807 31 -0.413 1.1128161120371014 10.848174734347797 2.934627988581369 0 0 1
2268 120 20 0.242 6.71093360183558 8.150867060700712 24.208106881097628 1 0 0
9617 524 56 0.652 3.5513750127178425 17.195560360987987 7.5941286898681275 0 0 0
7237 381 20 0.074 3.827394639936615 14.241261421993153 7.5938502820455565 0 0 0
4759 251 63 -0.156 19.75785306083272 23.9669749850977 24.671074169971227 0 0 0
4947 261 20 0.242 1.9888954826192926 11.203882763119047 0.30506512277311276 1 0 0
10412 683 56 0.652 7.878440557217949 12.009072052108454 1.1107540155887143 0 1 1
10411 683 31 -0.413 7.700940584343059 11.147540814912379 2.230249456911369 0 1 1
7239 381 20 0.074 4.484810327153295 12.70020630559799 7.0249093330996715 0 0 0
5888 310 20 0.074 4.460050211713841 0.3006967694276731 12.481378255497258 0 0 0
7352 387 20 0.074 2.4305557072197828 16.50067326006324 5.183097295283757 1 0 0
2518 133 20 0.236 4.329061366083824 14.842301449405703 0.8511318610322013 0 0 0
7236 381 12 -0.186 4.245881163065795 13.259665610471565 7.982317122639996 0 0 0
9618 524 31 -0.413 2.4552425272609892 16.610503817563323 8.133636587951672 0 0 0
4279 226 20 0.177 8.436504025014061 15.929761062724008 2.0760670085945034 1 0 0
1416 75 20 0.236 13.137272025737136 8.860043875082791 0.3928715077319026 0 1 0
11534 907 31 -0.413 7.80080036361314 13.395818448601633 7.4045552014513145 0 0 0
4734 250 20 0.177 13.898133197694563 9.196099273073397 6.605900261493116 0 0 0
4276 226 20 0.177 8.333802502444968 14.718246919408582 3.211828360688252 1 0 0
1414 75 62 0.049 13.21472567484407 8.79715825955554 2.5544957277152696 0 1 0
10951 791 31 -0.413 11.141879921884811 9.053048497426094 6.410523565781451 0 0 0
1413 75 20 0.242 12.696805286936392 9.295287941871775 4.589967494221407 0 1 0
4278 226 20 0.177 9.004168245997384 16.20278154769734 3.7844175853363664 1 0 0
11532 907 56 0.652 9.06730660895287 13.694835636629993 6.8898820832297885 0 0 0
4277 226 64 -0.382 8.953555684062023 15.508698432317214 2.9300990945329657 1 0 0
11531 907 31 -0.413 9.561164126095266 12.51250668630849 6.170369264397484 0 0 0
11533 907 31 -0.413 9.942318007722264 14.040165755069063 7.904522195964139 0 0 0
10415 683 31 -0.413 9.28359857336505 12.151281270953861 0.8901696401738467 0 1 1
4282 226 20 0.242 10.219689698889766 15.244457158766 0.40676992166096126 1 0 0
1415 75 63 -0.156 12.60139699504536 9.079704581975296 1.3168111967998295 0 1 0
1410 75 20 0.177 11.016923247369355 11.933182684308385 3.715011407341442 0 1 0
1407 75 20 0.177 9.599951242312764 10.804292093950375 3.270376713877984 0 1 0
1408 75 64 -0.382 10.61796303906398 10.914812599517342 3.7025397407390845 0 1 0
1409 75 20 0.177 10.51331545993041 10.63719377963882 4.741900416093417 0 1 0
1412 75 63 -0.099 12.530048465648182 9.34216553412899 3.5480766982296053 0 1 0
1417 75 63 -0.2 11.438713725371796 9.72918273278604 1.6137879682357206 0 1 0
1411 75 62 0.265 11.486072404044469 9.994903757373939 2.9844384518363096 0 1 0
1418 75 20 0.236 10.584425312311383 9.927339573150928 0.9632371727008253 0 1 0
4288 226 64 0.104 12.908238051934564 14.138137860538729 0.297106118269309 1 0 0
9667 534 56 0.652 14.777909751502628 11.772182208372847 4.819199285111241 0 0 0
4280 226 62 0.265 10.171421686821725 14.978294081027387 2.459261644413321 1 0 0
4283 226 62 0.049 11.922372963095485 14.285763019973963 1.36221609755322 1 0 0
4284 226 63 -0.156 12.17699108886637 14.038291088006783 2.693276985272029 1 0 0
4286 226 63 -0.2 11.082158020828782 14.48895569450495 3.3755792773638325 1 0 0
4281 226 63 -0.099 10.689638418028158 14.844902201135872 1.2331421116875647 1 0 0
9666 534 31 -0.413 13.379105371120469 11.64897128421729 4.96019352953233 0 0 0
4287 226 20 0.236 10.723090039147145 14.36239684369191 4.431830888486403 1 0 0
9669 534 31 -0.413 15.090571861818066 12.142292042732068 3.499410641710976 0 0 0
4285 226 20 0.236 13.05900968506423 13.548625372914293 3.045276619748614 1 0 0
9668 534 31 -0.413 15.319482683596279 12.722896882647339 5.672497682671635 0 0 0
9670 534 31 -0.413 15.357901181367986 10.542720845753683 5.0643348619606225 0 0 0
3 1 20 0.177 12.183828799856965 15.303233469152536 6.843467767868992 0 0 1
4291 226 12 -0.186 13.849016709616826 12.96149419861312 0.5086705116320053 1 0 0
4294 226 20 0.074 13.208063015307916 12.055302728301793 0.7852647668885744 1 0 0
8322 438 20 0.074 12.473685953976407 12.55795347295917 7.487402891625763 0 0 1