LAMMPS data file via write_data, version 2 Aug 2023, timestep = 1000000, units = real

12000 atoms
69 atom types
11500 bonds
258 bond types
19500 angles
165 angle types
20500 dihedrals
47 dihedral types
2500 impropers
5 improper types

0.12366332001029434 50.39 xlo xhi
0.12366332001029434 50.39 ylo yhi
0.12366332001029434 50.39 zlo zhi

Masses

1 15.9994
2 15.9994
3 15.9994
4 15.9994
5 15.9994
6 14.0067
7 14.0067
8 14.0067
9 14.0067
10 14.0067
11 14.0067
12 12.011
13 12.011
14 13.019
15 14.027
16 15.035
17 16.043
18 14.027
19 12.011
20 1.008
21 1.008
22 1
23 32.06
24 63.546
25 63.546
26 55.847
27 65.37
28 24.305
29 40.08
30 39.948
31 18.9984
32 35.453
33 79.904
34 12.011
35 15.9994
36 22.9898
37 35.453
38 12.011
39 35.453
40 1.008
41 32.06
42 12.011
43 15.9994
44 12.011
45 35.453
46 18.9984
47 12.011
48 13.019
49 15.9994
50 12.011
51 15.9994
52 14.0067
53 15.035
54 126.90447
55 35.453
56 10.811
57 78.95999999999999
58 1.008
59 35.453
60 79.904
61 15.9994
62 14.0067
63 12.011
64 12.011
65 14.0067
66 14.0067
67 15.9994
68 28.08
69 30.9738

Pair Coeffs # lj/cut/coul/long

1 0.305714 2.76007
2 0.412295 2.62585
3 0.203061 2.95484
4 0.252656 2.84916
5 0.155394 3.16565
6 0.152915 3.13647
7 0.0700622 3.5722
8 0.152915 3.13647
9 0.104651 3.34113
10 0.152915 3.13647
11 0.152915 3.13647
12 0.0663015 3.58118
13 0.00167194 6.63949
14 0.0226791 5.01918
15 0.098122 4.07038
16 0.207254 3.74792
17 0.302012 3.70995
18 0.11455 3.95474
19 0.120138 3.74119
20 0.0282937 2.37341
21 0 0
22 0 0
23 0.455513 3.30769
24 2.039 1.5184
25 2.039 1.5184
26 0 0
27 1.107 1.68112
28 0.0747249 1.93323
29 0.121156 2.81311
30 0.238148 3.40984
31 0.10897 2.94006
32 0.300087 3.46982
33 0.69792 3.6508
34 0.243126 3.60124
35 0.131455 3.17694
36 0.00509651 3.12117
37 0.162149 4.09571
38 0.101741 3.40006
39 0.299511 3.44
40 0.0197496 2.20219
41 0.310038 3.55995
42 0.207254 3.74792
43 0.409923 2.63004
44 0.0544087 3.7739
45 0.270582 3.44757
46 0.0828967 3.07717
47 0.0970049 3.3611
48 0.117014 3.91992
49 0.203061 2.95484
50 0.105027 3.74991
51 0.210013 2.95998
52 0.169966 3.25006
53 0.207254 3.74792
54 0.836845 3.84961
55 0.329921 3.26983
56 0.0663015 3.58118
57 0.455513 3.30769
58 0 0
59 0.329921 3.26983
60 0.580843 3.89995
61 0.119432 3.40025
62 0.1399 3.9019
63 0.0734574 3.52053
64 0.245018 2.81144
65 0.142655 4.06776
66 0.219779 3.64529
67 0.119497 3.1
68 0.584786 3.38557
69 0.584786 3.38557

Bond Coeffs # harmonic

1 375.239 1
2 446.941 1
3 349.274 1.09
4 1109.29 1.12
5 600.242 1.23
6 500.418 1.25
7 499.732 1.32
8 375.003 1.33
9 448.144 1.33
10 498.877 1.33
11 450.617 1.34
12 502.116 1.34
13 450.906 1.36
14 500.679 1.38
15 399.904 1.39
16 498.726 1.39
17 400.057 1.4
18 399.792 1.43
19 450.132 1.43
20 300.222 1.435
21 449.843 1.47
22 299.976 1.48
23 399.968 1.48
24 450.226 1.48
25 450.108 1.5
26 299.844 1.52
27 400.034 1.53
28 299.851 1.61
29 299.727 1.63
30 205.976 1.78
31 449.816 1.78
32 449.828 1.83
33 300.045 1.87
34 59.9679 1.98
35 60.0382 2
36 500.307 2.04
37 63.0357 2.21
38 554.493 1
39 349.928 1.1
40 599.794 1.758
41 449.829 1.53
42 444.341 1.93799
43 599.679 1.76
44 501.026 1.265
45 448.656 1.35
46 555.129 1.63299
47 350.249 2.33839
48 600.161 2.90283
49 445.884 2.79388
50 443.815 2.91189
51 409.328 2.077
52 600.173 2.87407
53 88.4321 1.1
54 56.1663 1.84
55 513.862 1.01
56 310.707 1.41
57 442.161 1.02
58 239.006 1.46
59 513.862 1.29
60 442.161 0.972
61 812.62 1.22
62 466.061 1.22
63 239.006 1.54
64 179.254 1.56
65 227.055 1.54
66 106.358 1.76
67 131.453 1.69
68 203.155 1.75
69 203.155 1.51
70 143.403 1.57
71 179.254 0.971
72 191.205 1.5
73 262.906 1.45
74 549.713 1.52
75 83.652 1.03
76 191.205 1.74
77 191.205 1.72
78 227.055 1.64
79 203.155 1.67
80 191.205 1.66
81 215.105 1.65
82 513.862 1.31
83 155.354 1.01
84 35.8509 1.89
85 101.577 1.93
86 155.354 1.36
87 167.304 1.79
88 114.723 1.35
89 155.354 1.39
90 203.155 1.38
91 227.055 0.983
92 155.354 1.3
93 418.26 1.08
94 155.354 1.9
95 1314.53 1.16
96 143.403 1.8
97 155.354 1.42
98 478.011 0.984
99 119.503 1.08
100 119.503 1.91
101 418.26 1.03
102 525.813 1.28
103 131.453 1.22
104 143.403 1.11
105 1195.03 1.21
106 466.061 1.07
107 956.023 1.21
108 693.117 1.21
109 87.2371 1.85
110 394.359 1.11
111 109.943 2.09
112 131.453 1.82
113 99.1874 1.96
114 56.1663 1.86
115 167.304 1.21
116 167.304 1.28
117 143.403 1.71
118 131.453 1.6
119 454.111 1.21
120 41.826 1.61
121 131.453 1.94
122 155.354 1.59
123 143.403 2.1
124 119.503 2.12
125 57.3614 2.13
126 203.155 1.26
127 1195.03 1.14
128 191.205 1.23
129 788.719 1.3
130 239.006 1.31
131 59.7514 2.04
132 82.457 1.34
133 621.415 0.938
134 310.707 1.16
135 34.6558 2.07
136 60.9465 1.16
137 93.2122 2.16
138 43.021 2.23
139 23.9006 2.05
140 896.272 1.19
141 728.967 1.47
142 394.359 1.57
143 1195.03 1.18
144 54.9713 1.87
145 1063.58 1.17
146 215.105 1.13
147 59.7514 2.02
148 179.254 1.07
149 250.956 1.14
150 155.354 1.06
151 537.763 1.46
152 812.62 1.17
153 92.0172 2.15
154 239.006 1.04
155 60.9465 1.4
156 1314.53 1.11
157 466.061 1.56
158 752.868 1.49
159 501.912 1.54
160 35.8509 2.17
161 35.8509 2.27
162 669.216 1.45
163 764.818 1.25
164 848.47 1.27
165 561.663 1.16
166 1434.03 1.14
167 501.912 1.17
168 537.763 1.19
169 920.172 1.14
170 227.055 1.24
171 1434.03 1.13
172 89.6272 2.91
173 57.3614 2.24
174 418.26 0.743
175 239.006 1.2
176 111.138 2.33
177 96.7973 2.42
178 83.652 1.32
179 1159.18 1.2
180 1314.53 1.2
181 430.21 1.58
182 53.7763 1.47
183 1.55354 2.77
184 5.13862 2.25
185 100.382 2.18
186 50.1912 1.52
187 93.2122 2.19
188 27.4857 1.48
189 1912.05 1.07
190 8.60421 2.8
191 87.2371 2.52
192 0.669216 2.79
193 812.62 1.16
194 1.79254 2.68
195 406.31 1.59
196 119.503 1.18
197 34.6558 2.54
198 1792.54 1.1
199 824.57 1.29
200 33.4608 2.44
201 107.553 2.41
202 112.333 2.36
203 20.3155 1.43
204 2.27055 2.57
205 19.1205 2.47
206 0.764818 2.71
207 1553.54 1.12
208 3.70459 2.75
209 501.912 1.14
210 0.717017 2.86
211 10.5163 2.64
212 1912.05 0.985
213 1.91205 2.61
214 7.40918 2.62
215 59.7514 2.46
216 3.58509 2.66
217 1.31453 2.72
218 58.5564 1.63
219 573.614 1.12
220 37.0459 2.32
221 16.7304 1.44
222 1553.54 1.16
223 7.17017 2.69
224 10.0382 2.49
225 3.22658 2.92
226 0.82457 2.29
227 9.79924 2.4
228 1.03967 2.37
229 1.55354 2.94
230 5.85564 2.95
231 1.67304 2.96
232 0.0131453 2.56
233 5.25813 2.59
234 15.5354 2.38
235 836.52 1.12
236 1.91205 2.5
237 2.39006 2.3
238 585.564 1.04
239 3.34608 2.99
240 0.967973 2.34
241 1.07553 2.98
242 2.27055 2.74
243 1063.58 1.16
244 812.62 1.5
245 1.31453 2.84
246 0.322658 2.82
247 908.222 1.23
248 466.061 1.05
249 3.34608 2.88
250 1434.03 1.18
251 1673.04 1.15
252 6.33365 2.9
253 1027.72 1.24
254 418.26 1.9
255 2270.55 1.08
256 1434.03 1.21
257 764.818 0.975
258 0 0

Angle Coeffs # harmonic

1 45.3116 90
2 50.0917 90
3 47.7712 96
4 54.9551 100
5 47.5559 103
6 55.0345 104
7 50.1709 108
8 30.1731 109.5
9 33.8897 109.5
10 40.2609 109.5
11 45.0394 109.5
12 47.694 109.5
13 55.1272 109.5
14 47.635 109.6
15 55.1139 111
16 55.0997 113
17 4.824 115
18 45.0699 115
19 59.7937 115
20 44.8085 116
21 59.7719 116
22 60.1639 117
23 34.88 120
24 39.8095 120
25 45.1871 120
26 47.4278 120
27 50.1166 120
28 59.9756 120
29 69.8346 120
30 60.0726 121
31 60.091 122
32 34.8146 123
33 59.8929 124
34 30.0075 125
35 60.0779 125
36 44.9139 126
37 49.998 126
38 60.166 126
39 50.1189 132
40 47.5187 155
41 28.4971 180
42 45.9951 109.5
43 52.4767 107.57
44 65.472 111.3
45 55.0189 97.4
46 55.0247 106.75
47 47.5019 108.53
48 65.5335 109.5
49 54.9566 107.6
50 47.4817 109.5
51 54.9931 110.3
52 55.0234 111.4
53 60.044 117.2
54 60.0023 121.4
55 48.24 180
56 180.46 109
57 192.229 106
58 145.153 126
59 145.153 96.2
60 156.922 114
61 203.998 119
62 239.306 130
63 298.152 107
64 156.922 134
65 239.306 101
66 286.382 113
67 368.766 134
68 356.997 119
69 333.459 126
70 251.075 89.6
71 380.536 114
72 286.382 135
73 145.153 88.3
74 133.384 60
75 380.536 179
76 251.075 180
77 470.766 178
78 47.0766 59.9
79 47.0766 60.3
80 251.075 124
81 706.149 118
82 117.691 144
83 627.688 123
84 470.766 118
85 333.459 94.8
86 90.2301 175
87 156.922 82.8
88 117.691 77.6
89 239.306 145
90 251.075 50.8
91 380.536 104
92 262.844 84.4
93 215.768 63.3
94 215.768 61
95 298.152 173
96 192.229 173
97 82.384 50.9
98 431.535 127
99 62.7688 67.8
100 156.922 180
101 588.457 118
102 30.1731 110
103 227.537 94.8
104 431.535 173
105 34.5228 78.5
106 70.6149 138
107 70.6149 168
108 156.922 167
109 18.046 149
110 333.459 144
111 356.997 148
112 321.69 144
113 356.997 148
114 321.69 147
115 333.459 144
116 5099.96 60.8
117 1451.53 68
118 298.152 161
119 156.922 155
120 309.921 154
121 215.768 75.3
122 309.921 64.7
123 549.227 173
124 3334.59 45.8
125 863.071 123
126 549.227 123
127 470.766 166
128 380.536 166
129 203.998 139
130 66.6918 161
131 7.45379 44.9
132 25.1075 84.8
133 192.229 161
134 333.459 70.4
135 627.688 173
136 1.92229 51.6
137 21.5768 73.3
138 7.45379 174
139 470.766 132
140 145.153 69.9
141 15.6922 144
142 1922.29 97.9
143 392.305 155
144 588.457 104
145 117.691 149
146 509.996 157
147 286.382 166
148 333.459 89.8
149 392.305 79.1
150 6669.18 45.2
151 470.766 101
152 745.379 125
153 168.691 49.6
154 509.996 112
155 470.766 107
156 298.152 59.6
157 239.306 70.2
158 3923.05 100
159 3923.05 100
160 1059.22 46.3
161 1176.91 46.3
162 431.535 94.1
163 509.996 69.6
164 470.766 139
165 666.918 132

Dihedral Coeffs # harmonic

1 0.638145 -1 1
2 0.81501 -1 1
3 1.18786 -1 1
4 1.40057 -1 1
5 2.2347 -1 1
6 2.2586 -1 1
7 0.666826 1 1
8 1.27868 1 1
9 0.365679 -1 2
10 1.40057 -1 2
11 1.69933 -1 2
12 3.9914 -1 2
13 5.73614 -1 2
14 8.00669 -1 2
15 9.99044 -1 2
16 0 1 2
17 0.0999044 1 2
18 0.499522 1 2
19 0.750478 1 2
20 1.21654 1 2
21 3.9914 1 2
22 0.250956 1 3
23 0.301147 1 3
24 0.310707 1 3
25 0.604685 1 3
26 0.700287 1 3
27 0.762428 1 3
28 0.872371 1 3
29 0.901052 1 3
30 0.932122 1 3
31 0.999044 1 3
32 1.12094 1 3
33 1.30019 1 3
34 1.41491 1 3
35 1.83795 1 3
36 2.06023 1 3
37 2.27055 1 3
38 0 1 4
39 0.239006 -1 6
40 0.239006 1 6
41 0.901052 1 6
42 0.83652 -1 2
43 0.669216 1 3
44 0.167304 -1 6
45 0.0956023 1 6
46 0.239006 -1 3
47 0 1 1

Improper Coeffs # harmonic

1 20.0075 0
2 40.0151 35.2644
3 80.0302 0
4 20.0075 180
5 40.0151 -35.2644

Atoms # full

11907 982 56 0.652 4.350038365620933 5.504530041159506 2.530874441789853 1 0 0
9011 475 62 0.265 5.9740751311081794 5.032633191549144 6.6093654935376 0 0 1
9008 475 64 -0.382 6.713071916482845 3.9147922931703705 6.076678788929373 0 0 1
9018 475 20 0.236 4.351558473001353 4.922387712811073 5.170913506807004 0 0 1
9017 475 63 -0.2 4.854703908268917 5.498467160014645 5.902893140372181 0 0 1
9012 475 63 -0.099 6.1662029485172996 5.673700136312075 7.746223128642873 0 0 1
10807 762 56 0.652 3.5447835351583903 1.8531269955737493 7.302556465432098 0 0 1
9009 475 20 0.177 7.137033229162265 3.326386110830171 6.811874945513907 0 0 1
11906 982 31 -0.413 4.4121157820180805 5.632050910546277 1.1541509043297282 1 0 0
11908 982 31 -0.413 3.193495039071449 4.833782166629371 2.9380425110424593 1 0 0
4840 255 20 0.06900000000000001 4.426814564555944 2.372627644426852 3.3998919038434474 0 1 1
9010 475 20 0.177 6.013210611426823 3.239324514751628 5.611166129361393 0 0 1
11909 982 31 -0.413 4.33200527751645 6.772033191307463 3.1541769935404975 1 0 0
11910 982 31 -0.413 5.443714067707084 4.846451997883448 2.9964602413816706 1 0 0
9007 475 20 0.177 7.467992661954895 4.2177379290752945 5.321537843517146 0 0 1
4839 255 64 0.104 4.025045579019643 2.055553496893335 2.4388563310207227 0 1 1
4841 255 20 0.06900000000000001 3.6592847463592735 2.902790369245655 1.9374245781747808 0 1 1
4842 255 12 -0.186 5.243347877382539 1.3796082213980372 1.7668480048218498 0 1 1
10810 762 31 -0.413 2.4362181675336414 1.0980547718716236 6.859777176204201 0 0 1
4834 255 62 0.049 2.924119643857882 1.1080209660899136 2.6242937154638644 0 1 1
4845 255 20 0.074 6.045891284153327 2.0746073746200566 1.5382702231136827 0 1 1
4843 255 20 0.074 5.593951173502356 0.605116336844417 2.4393230668228845 0 1 1
9015 475 63 -0.156 4.397636808740182 6.502217571903213 6.728673702941498 0 0 1
9016 475 20 0.236 3.517430438350403 7.108797476500697 6.827793961377149 0 0 1
2165 114 20 0.074 1.9737604906899284 5.897406510767406 5.273448804340278 0 0 0
6756 356 63 -0.2 7.351406558415789 7.319084871526805 1.4571419870815097 0 0 0
4835 255 63 -0.156 1.7265763847476523 1.1812274558572131 1.8980119671834577 0 1 1
6757 356 20 0.236 6.359492192520383 7.504041127253016 1.8019584008061438 0 0 0
4836 255 20 0.236 1.6477881128272382 1.835687936061729 1.0355226396653905 0 1 1
10806 762 31 -0.413 3.218427556718606 3.1378854060860193 7.336200867108883 0 0 1
77 5 20 0.177 5.861364052193961 7.982090065735357 5.344867336614851 0 0 0
2162 114 20 0.06900000000000001 1.858940887142523 3.443297286517628 4.8210938569108235 0 0 0
4844 255 20 0.074 4.959595539268472 0.8706833328337515 0.8347079060577051 0 1 1
6754 356 63 -0.156 8.458755628591327 6.85961477793978 2.1289696502253204 0 0 0
6755 356 20 0.236 8.767981909595619 7.014449168431584 3.1220360048380225 0 0 0
5062 267 62 0.049 7.925768908744395 0.45963421099723833 7.876089154424235 1 0 0
10809 762 31 -0.413 4.596192804916099 1.6358424631887443 6.407593508889314 0 0 1
9014 475 62 0.049 5.20748186437883 6.61462436732032 7.82455961762932 0 0 1
9013 475 20 0.242 6.712862745101574 5.477387250197296 8.642617605644293 0 0 1
4947 261 20 0.242 2.265435593738966 8.435419410722115 3.4697954259022405 1 0 0
2160 114 64 0.104 1.000744469166764 4.082869612837274 4.64192140151579 0 0 0
918 49 63 -0.099 17.021915600677165 0.3404916157710696 10.34972164444202 0 0 0
7621 402 64 -0.382 0.6697579068227818 4.408310771821615 19.06387015497816 0 0 1
9741 549 31 -0.413 8.323612003708728 1.2045702263032105 1.5661722819850736 0 0 1
2157 114 20 0.236 0.7365901794747363 2.3038373252039612 6.792757870662123 0 0 0
2164 114 20 0.074 1.0997345219260177 5.164086024665922 6.579737618197907 0 0 0
5992 316 20 0.242 2.4877871129354068 9.9950681428421 24.985875037595946 1 1 0
1771 94 20 0.177 2.1953120939291004 5.497623522430852 0.43222786627044846 0 0 0
5058 267 20 0.177 9.944495388396462 1.2161892666954497 4.316197019972711 1 0 0
5059 267 62 0.265 8.790198128066292 0.9975483219230284 5.973765333029399 1 0 0
5060 267 63 -0.099 8.712249475666093 1.3234686097315307 7.20826476060786 1 0 0
5055 267 20 0.177 8.759422213420299 2.472352911205955 4.426738561415776 1 0 0
10951 791 31 -0.413 9.803044350626514 4.673413428474013 4.480800391347359 0 0 0
10954 791 31 -0.413 9.554131556224366 4.510521564763556 6.784149937424567 0 0 0
6764 356 20 0.074 9.548131253443124 3.563958641320922 1.8086700159505027 0 0 0
6761 356 12 -0.186 10.291479371379149 4.07986428577817 1.1532289514587517 0 0 0
6763 356 20 0.074 11.176484124968006 3.5500238737481995 1.3787685202665065 0 0 0
6753 356 62 0.049 9.295051743534108 6.373890239574537 1.1656503506920883 0 0 0
6758 356 64 0.104 10.448589468548079 5.4732024777172334 1.5158725744151789 0 0 0
5057 267 20 0.177 10.18654426607193 2.439521949047338 5.41913492519729 1 0 0
6759 356 20 0.06900000000000001 10.800447028941301 5.673342089941677 2.5658586451873058 0 0 0
10953 791 31 -0.413 11.364082756589713 5.609624356882456 5.856387395848231 0 0 0
2686 142 20 0.242 15.002734124174992 1.715573260528563 5.113288080752494 0 1 0
10955 791 31 -0.413 9.314861957492994 6.5214878909174505 5.77195801513776 0 0 0
2687 142 62 0.049 16.2064960958908 1.9123715023922883 3.4502241842962302 0 1 0
2690 142 63 -0.2 14.625356832115727 1.7245891693691082 1.9664688084493969 0 1 0
2685 142 63 -0.099 15.096145869076416 1.7566434975246024 4.080099310709466 0 1 0
10952 791 56 0.652 9.996122657916096 5.306676670537269 5.700601428739266 0 0 0
2684 142 62 0.265 14.090680292349171 1.6845545118772185 3.2154052882426836 0 1 0
1420 75 20 0.06900000000000001 16.19774663112762 7.63527004293173 5.954385575014555 0 1 0
1419 75 64 0.104 15.401337272825213 7.618814310936103 5.134880973485523 0 1 0
2688 142 63 -0.156 16.002704115904983 1.8755876735948833 2.0793070314826663 0 1 0
1421 75 20 0.06900000000000001 15.839453969276324 7.936274093087591 4.205518760019271 0 1 0
2681 142 64 -0.382 12.70002397212028 1.7310881519485213 3.5880531714347943 0 1 0
2682 142 20 0.177 12.144904401830253 1.5002780900326376 2.700551570969263 0 1 0
1422 75 12 -0.186 14.8226319616804 6.193286662788366 5.020574337849039 0 1 0
1423 75 20 0.074 14.054325097711873 6.050055577950181 4.288951877793491 0 1 0
2680 142 20 0.177 12.383655053065112 2.717254715037013 3.8441736329576996 0 1 0
1413 75 20 0.242 12.567893200303017 7.773744149338041 4.610093605010621 0 1 0
1425 75 20 0.074 14.432133326540987 5.9260322632976195 6.024012300164712 0 1 0
5056 267 64 -0.382 9.45314499385202 1.866089231050775 4.981554847422936 1 0 0
10787 758 56 0.652 14.848874686194591 7.264164170515134 1.2564982365319501 0 0 1
11680 936 31 -0.413 13.078838789148643 1.2358528052575373 6.743159210824676 0 0 0
1424 75 20 0.074 15.61262957466002 5.540521911776622 4.683130787704257 0 1 0
10039 608 31 -0.413 15.434259153394452 4.161088496879328 7.6581207358848795 0 1 0
10786 758 31 -0.413 13.770031439719414 7.501188085569696 2.1500383973009387 0 0 1
10790 758 31 -0.413 15.448222015935164 6.032637996686888 1.5258218751762056 0 0 1
6760 356 20 0.06900000000000001 11.261392310524995 5.9085611746578985 0.9171909266391259 0 0 0
2691 142 20 0.236 13.9578914995522 1.457930038295106 1.173008893121357 0 1 0
4735 250 20 0.177 8.772560065165674 7.123410860919965 8.283877123221929 0 0 0
1412 75 63 -0.099 13.068469997841852 8.5521858418302 5.109915466841628 0 1 0
1414 75 62 0.049 14.397186213896806 8.673665740833997 5.495863170572442 0 1 0
10788 758 31 -0.413 15.777220432222016 8.323700451303612 1.4209995958256927 0 0 1
11789 958 31 -0.413 3.7551959038363663 22.193731313390575 0.495684881174841 0 0 0
4738 250 20 0.242 9.920948677359855 4.97339154288311 8.82072562955778 0 0 0
9406 496 20 0.177 13.622568730595507 4.176382708490156 0.590437412595913 0 0 1
4746 250 20 0.06900000000000001 13.252474323651084 4.18975394272089 8.120605302989349 0 0 0
2689 142 20 0.236 16.669381601936784 2.1031966805746802 1.2019701806757501 0 1 0
2697 142 20 0.074 17.422987843560552 4.220644735711857 4.702621282976322 0 1 0
5061 267 20 0.242 9.33163418498369 2.08721171639251 7.614137495673214 1 0 0
4733 250 64 -0.382 9.5854841817658 7.700771251569234 8.796809310923612 0 0 0
10040 608 31 -0.413 15.458474127445163 6.307214993082409 8.421396627578977 0 1 0
922 49 20 0.236 15.260996451517174 1.7728703358560194 7.993348688805157 0 0 0
10037 608 56 0.652 16.236003250475225 5.213162782503425 8.166365969060788 0 1 0
7224 381 20 0.177 0.241522007208437 17.947745028501178 9.633944502324043 0 0 0
10036 608 31 -0.413 17.197341021550642 5.493615328537105 7.1841191588838 0 1 0
2696 142 20 0.074 18.028790384287582 3.8898006211137792 3.1332100003266605 0 1 0
8191 432 64 -0.382 21.03480410364032 1.3636918920026997 1.926766129775088 0 1 1
2694 142 20 0.06900000000000001 17.332813942061257 1.640040190760663 5.141613300916487 0 1 0
2692 142 64 0.104 17.532130294003384 2.0104117364052554 4.13006494033742 0 1 0
2695 142 12 -0.186 17.978919555587048 3.467880177823335 4.135829969909022 0 1 0
2693 142 20 0.06900000000000001 18.131338895418533 1.3837747100235709 3.445497509785408 0 1 0
5806 306 63 -0.2 24.464865523246804 4.083070123797224 1.7094776894558004 0 0 1
2698 142 20 0.074 18.982710359961516 3.4265865418210573 4.408260149128403 0 1 0
5805 306 20 0.236 22.420139180699927 3.4876500614173325 2.312939776214216 0 0 1
5808 306 64 0.104 22.754141331827412 4.98197624440556 4.8048240234141755 0 0 1
5810 306 20 0.06900000000000001 23.028684716230643 4.053190461029701 5.292258594777571 0 0 1
5809 306 20 0.06900000000000001 23.248157415906224 5.709379003238291 5.403040645092888 0 0 1
5811 306 12 -0.186 21.228050900205044 5.184857995076647 4.678850867829046 0 0 1
5813 306 20 0.074 21.14776017151402 5.661405753314146 3.714648758480037 0 0 1
5812 306 20 0.074 20.81280211381165 5.699571359255022 5.5522642528721144 0 0 1
5814 306 20 0.074 20.848167038050544 4.174301112628689 4.635370469261808 0 0 1
5803 306 62 0.049 23.444079988308758 4.978624659893542 3.472512794589919 0 0 1
5804 306 63 -0.156 23.328797102280678 4.034308254392347 2.4955024284763088 0 0 1
9861 573 31 -0.413 20.045006858268202 4.464331523617157 1.8886918252381606 0 0 1
6057 319 20 0.06900000000000001 18.962567715675657 6.886208949128135 2.872787341369269 0 0 0
3799 200 20 0.074 23.667563781125853 23.879196538739354 0.7707329353080368 0 0 0
6055 319 64 0.104 19.39795929607038 7.8371831493613096 2.5523717360594165 0 0 0
6433 339 63 -0.2 21.029422219301154 4.369814900140993 8.14790368747513 1 1 0
8193 432 20 0.177 20.40969223341154 1.8744946881401467 2.6261040133700417 0 1 1
6423 339 20 0.177 18.490455692196544 3.10231694373503 7.852050007176182 1 1 0
6424 339 64 -0.382 19.208502748234494 2.665624051260974 8.519468080036082 1 1 0
11201 841 31 -0.413 20.213066705368828 0.9924816222046982 5.230833909651264 0 1 1
8192 432 20 0.177 21.228198335229152 1.9934299097389834 1.0676805759858827 0 1 1
11119 824 31 -0.413 20.851095139814664 7.661280210297605 8.27516714071082 0 0 1
6425 339 20 0.177 19.211027943205085 1.6235844155244405 8.217037366798667 1 1 0
6434 339 20 0.236 20.421701064819995 5.251072336783318 8.198979789373903 1 1 0
11117 824 56 0.652 22.071929134596665 8.201543491797988 7.864393027217998 0 0 1
6058 319 12 -0.186 20.815677732262273 7.752752075271449 2.183226133500393 0 0 0
6059 319 20 0.074 21.05875294332399 6.8600652112670035 1.5949185629609373 0 0 0
6049 319 20 0.242 20.98557472995532 9.430451319429647 4.276884410415018 0 0 0
6061 319 20 0.074 21.393291400053826 7.589051099902172 3.1225567065167725 0 0 0
6437 339 20 0.06900000000000001 24.37406573994448 1.8954353374004809 7.850747423814923 1 1 0
9224 486 63 -0.156 0.8943058056137583 4.626757229627608 11.884569117375747 0 0 0
11349 870 31 -0.413 24.661565946453607 8.87459687042155 3.583487050247936 0 0 1
8564 451 20 0.06900000000000001 24.810789136421903 7.815816641426125 6.19346067798014 0 1 1
2353 124 12 -0.186 18.774953782468373 20.685059547855005 24.788569624361777 0 0 0
11223 845 31 -0.413 24.08309533047257 0.3611948231553092 1.9531708441211895 0 0 0
6427 339 62 0.265 20.575218637332064 3.1257356030208294 8.490767446789478 1 1 0
6428 339 63 -0.099 21.65375705299487 2.3318275156551094 8.751428429625431 1 1 0
11222 845 56 0.652 24.227408567368673 0.4525108115860682 0.5531782831750669 0 0 0
8190 432 20 0.177 21.947989051624482 0.9796794748800471 2.402610837933502 0 1 1
11120 824 31 -0.413 23.02795787457851 7.166471851754412 7.562629003872014 0 0 1
6429 339 20 0.242 21.596289440444757 1.3429951908229967 9.195157638323325 1 1 0
4756 251 63 -0.099 22.477256599881503 25.22393511222785 25.015172573678477 0 0 0
9371 494 20 0.177 19.19418904853439 9.153267755497936 9.166353493050867 0 0 0
9865 573 31 -0.413 19.21471154083717 2.9865172268619755 0.3640188272159726 0 0 1
9862 573 56 0.652 19.845359795922008 4.213473835920497 0.5402823704956716 0 0 1
3819 201 20 0.074 22.999225328044567 1.470174596921486 5.8507163217173 0 0 0
80 5 20 0.177 7.475401832350835 8.32521712335319 5.674728447392233 0 0 0
79 5 20 0.177 6.86303581465986 8.470143652034265 4.085659386466615 0 0 0
78 5 64 -0.382 6.594874857612468 8.652744671455691 5.087701531394408 0 0 0
10205 641 31 -0.413 1.7158139114483586 8.731644100324617 5.91710941806717 0 0 0
2498 132 63 -0.156 6.284074855337471 24.912734246459454 16.155943230180103 0 0 0
7045 371 20 0.06900000000000001 1.6041467449044964 24.949710587545695 19.394810379045694 0 0 0
2641 139 20 0.074 11.135936794885794 0.13925592206774695 11.38728792394213 0 0 0
88 5 20 0.236 4.085797234933559 9.563277434125421 5.378585323994107 0 0 0
4943 261 20 0.177 4.540195126217803 10.664340299923648 2.5352413399706535 1 0 0
81 5 62 0.265 6.099107121819347 10.034576613621251 5.243072499504357 0 0 0
4946 261 63 -0.099 1.9177935252670117 9.023843671789555 2.5648930056505974 1 0 0
87 5 63 -0.2 4.78962161289553 10.300398564765258 5.296400850442166 0 0 0
86 5 20 0.236 3.7599101522684144 12.102109220164568 5.838242742915374 0 0 0
85 5 63 -0.156 4.630381851177462 11.63344213690301 5.441013378806896 0 0 0
82 5 63 -0.099 6.735389998568327 11.195282339725463 5.24181167216367 0 0 0
84 5 62 0.049 5.845551546735155 12.173272295837537 5.4492066242146855 0 0 0
89 5 64 0.104 6.100245547731589 13.626914734072233 5.5305040806310135 0 0 0
90 5 20 0.06900000000000001 5.191138637598159 14.009696510361234 5.196999554245019 0 0 0
92 5 12 -0.186 6.4492423957280876 14.0327374475122 6.98526488272569 0 0 0
11032 807 56 0.652 3.4673804864089486 13.905103715827439 2.140513583179152 0 0 1
11033 807 31 -0.413 3.468024275970031 13.451755269955525 0.7994735833642438 0 0 1
91 5 20 0.06900000000000001 6.791891787686483 13.832216200362572 4.675645172584271 0 0 0
11035 807 31 -0.413 4.750761780918058 14.229770379919326 2.5316801756217546 0 0 1
11034 807 31 -0.413 3.0591954581797633 12.82450927514966 3.00234121081981 0 0 1
11031 807 31 -0.413 2.5271106909260648 14.990529119087238 2.229451956655427 0 0 1
7343 387 63 -0.156 0.9821153633262585 15.680867655049113 5.026183762980224 1 0 0
95 5 20 0.074 5.614216878012093 14.08364719724898 7.668069497052591 0 0 0
93 5 20 0.074 7.095884513866233 13.298013567886953 7.486853849316501 0 0 0
94 5 20 0.074 6.976816878728968 14.993554983433334 7.120471896069021 0 0 0
7349 387 20 0.06900000000000001 1.3912929208568872 13.218755872834784 4.673576507803616 1 0 0
4945 261 62 0.265 2.7364458589100287 9.807046982454478 1.8188607124982032 1 0 0
83 5 20 0.242 7.841134893052896 11.279857711457602 5.140762483199222 0 0 0
7344 387 20 0.236 1.8295058861012394 15.708516292595187 4.339005955000124 1 0 0
10412 683 56 0.652 8.488052088857664 10.906712011309043 2.270694965769671 0 1 1
4944 261 20 0.177 4.5874766833971234 8.917898744909039 2.0678139916243774 1 0 0
4942 261 64 -0.382 4.207663526929965 9.955769083775591 1.8007206132768967 1 0 0
10414 683 31 -0.413 7.091464814157966 10.59166910478236 2.159864953985 0 1 1
4951 261 63 -0.2 2.0003731690008215 10.46612739883546 0.9695204792917582 1 0 0
10415 683 31 -0.413 8.543829476261212 12.20839365918097 2.798925394942877 0 1 1
10413 683 31 -0.413 9.131791179774993 10.056873161843406 3.1548146492705254 0 1 1
2511 133 20 0.177 6.7419232950145735 12.80959349898912 0.9730114585538105 0 0 0
9616 524 31 -0.413 3.821772216177582 16.137286827333376 7.548646002316698 0 0 0
4941 261 20 0.177 4.501580811772345 10.322542483835761 0.8354000692798876 1 0 0
4280 226 62 0.265 8.266447699874773 16.31847505836402 3.48045720532172 1 0 0
4276 226 20 0.177 6.079991627375318 16.480542067640368 3.32848192473323 1 0 0
4287 226 20 0.236 8.782342480903859 16.587357032715143 1.3422703380963286 1 0 0
10202 641 56 0.652 1.776327095347096 9.1491208246601 7.265882966969241 0 0 0
7234 381 20 0.06900000000000001 1.4015460062560028 12.865414436575975 9.657229669209745 0 0 0
11348 870 31 -0.413 25.12273180344411 9.470743304519424 1.4160540073782517 0 0 1
4948 261 62 0.049 0.7122609694538535 9.00641075227374 2.0552283891026386 1 0 0
3818 201 20 0.074 22.409180971343094 0.19303795801709525 4.849210870438851 0 0 0
4949 261 63 -0.156 0.7265212940112264 10.029903093627176 1.1099659700471016 1 0 0
4758 251 62 0.049 21.369619101383265 25.18286549504686 24.216126455790548 0 0 0
1407 75 20 0.177 10.424498589496835 9.067953904081246 5.002136890882811 0 1 0
4282 226 20 0.242 8.52608175441089 15.461983855919 5.477171648045253 1 0 0
11531 907 31 -0.413 9.9244013762441 12.645344621350196 8.519410527551116 0 0 0
4281 226 63 -0.099 8.842208090550503 15.60453225229723 4.445126726214491 1 0 0
9641 529 31 -0.413 9.204565276263736 16.116995600804362 7.8076006448037365 0 0 0
7691 405 20 0.06900000000000001 13.33608685927045 9.743377845220305 1.3167570886559803 0 0 1
1409 75 20 0.177 10.600157252581973 10.486056067664292 5.984740529587331 0 1 0
7682 405 63 -0.099 14.110752275764055 12.433324055026324 0.4700430269700242 0 0 1
1415 75 63 -0.156 14.459238098691959 9.684820310953297 6.427601026315292 0 1 0
1411 75 62 0.265 12.340630437993973 9.509765422573947 5.68050033110445 0 1 0
1416 75 20 0.236 15.347441373805667 10.011944164805296 6.973695217008288 0 1 0
4284 226 63 -0.156 9.805155616465859 14.947861477827393 2.573906949086419 1 0 0
4283 226 62 0.049 9.78197361018131 14.843297937711784 3.898449154017919 1 0 0
4293 226 20 0.074 11.071631764266632 12.953277664224006 6.481559075438932 1 0 0
1418 75 20 0.236 13.013600944440562 11.298720807981228 6.734408460238561 0 1 0
1417 75 63 -0.2 13.172658857220398 10.20862749609982 6.514327448182852 0 1 0
1408 75 64 -0.382 11.061045724481062 10.003663111105809 5.176610921609233 0 1 0
1410 75 20 0.177 11.176993902085806 10.660217883061437 4.297694765506185 0 1 0
9667 534 56 0.652 14.136540357596722 12.855034818206295 4.321226962969232 0 0 0
4288 226 64 0.104 10.762913162072328 13.988274152971202 4.657574708112323 1 0 0
9668 534 31 -0.413 13.769541823999896 13.328703523146865 5.564959366995146 0 0 0
9670 534 31 -0.413 15.373030061597442 12.279968342277883 4.369096873229185 0 0 0
4289 226 20 0.06900000000000001 11.628198858749208 14.657946555299825 4.821635446924736 1 0 0
4290 226 20 0.06900000000000001 11.091134357746846 13.244639330944612 3.9489873275111926 1 0 0
9669 534 31 -0.413 14.095093507903279 13.975509944200388 3.401688106787725 0 0 0
4291 226 12 -0.186 10.199219093956797 13.433913235185363 5.918063776164964 1 0 0
4294 226 20 0.074 9.779747302762456 14.096419615125948 6.633098503787363 1 0 0
4292 226 20 0.074 9.44204048525718 12.734014425664986 5.605241554518958 1 0 0
7683 405 20 0.242 13.379600522034158 12.994512927770064 1.0903279886868988 0 0 1
9666 534 31 -0.413 13.216925966035937 11.88107062951173 3.8678610957157655 0 0 0
1 1 20 0.177 14.124649625559227 17.527623100047734 4.870496896695715 0 0 1
9643 529 31 -0.413 11.174602882706862 17.041395126518584 7.262624144071159 0 0 0
10411 683 31 -0.413 9.134445715094792 10.908695176575637 1.005255711653938 0 1 1
8317 438 20 0.06900000000000001 12.75111520148407 11.953393748008406 8.779533175634487 0 0 1